+ 0.1 0 2 cbr 1000 ------- 0 0.0 3.0 0 0
- 0.1 0 2 cbr 1000 ------- 0 0.0 3.0 0 0
+ 0.1 0 2 cbr 1000 ------- 0 0.0 3.0 1 1
+ 0.1 0 2 cbr 1000 ------- 0 0.0 3.0 2 2
+ 0.1 0 2 cbr 1000 ------- 0 0.0 3.0 3 3
+ 0.1 0 2 cbr 1000 ------- 0 0.0 3.0 4 4
- 0.10004 0 2 cbr 1000 ------- 0 0.0 3.0 1 1
- 0.10008 0 2 cbr 1000 ------- 0 0.0 3.0 2 2
- 0.10012 0 2 cbr 1000 ------- 0 0.0 3.0 3 3
- 0.10016 0 2 cbr 1000 ------- 0 0.0 3.0 4 4
r 0.10104 0 2 cbr 1000 ------- 0 0.0 3.0 0 0
+ 0.10104 2 3 cbr 1000 ------- 0 0.0 3.0 0 0
- 0.10104 2 3 cbr 1000 ------- 0 0.0 3.0 0 0
r 0.10108 0 2 cbr 1000 ------- 0 0.0 3.0 1 1
+ 0.10108 2 3 cbr 1000 ------- 0 0.0 3.0 1 1
r 0.10112 0 2 cbr 1000 ------- 0 0.0 3.0 2 2
+ 0.10112 2 3 cbr 1000 ------- 0 0.0 3.0 2 2
r 0.10116 0 2 cbr 1000 ------- 0 0.0 3.0 3 3
+ 0.10116 2 3 cbr 1000 ------- 0 0.0 3.0 3 3
r 0.1012 0 2 cbr 1000 ------- 0 0.0 3.0 4 4
+ 0.1012 2 3 cbr 1000 ------- 0 0.0 3.0 4 4
- 0.10904 2 3 cbr 1000 ------- 0 0.0 3.0 1 1
+ 0.111905 0 2 cbr 1000 ------- 0 0.0 3.0 5 5
- 0.111905 0 2 cbr 1000 ------- 0 0.0 3.0 5 5
+ 0.111905 0 2 cbr 1000 ------- 0 0.0 3.0 6 6
+ 0.111905 0 2 cbr 1000 ------- 0 0.0 3.0 7 7
+ 0.111905 0 2 cbr 1000 ------- 0 0.0 3.0 8 8
+ 0.111905 0 2 cbr 1000 ------- 0 0.0 3.0 9 9
- 0.111945 0 2 cbr 1000 ------- 0 0.0 3.0 6 6
- 0.111985 0 2 cbr 1000 ------- 0 0.0 3.0 7 7
- 0.112025 0 2 cbr 1000 ------- 0 0.0 3.0 8 8
- 0.112065 0 2 cbr 1000 ------- 0 0.0 3.0 9 9
r 0.112945 0 2 cbr 1000 ------- 0 0.0 3.0 5 5
+ 0.112945 2 3 cbr 1000 ------- 0 0.0 3.0 5 5
r 0.112985 0 2 cbr 1000 ------- 0 0.0 3.0 6 6
+ 0.112985 2 3 cbr 1000 ------- 0 0.0 3.0 6 6
r 0.113025 0 2 cbr 1000 ------- 0 0.0 3.0 7 7
+ 0.113025 2 3 cbr 1000 ------- 0 0.0 3.0 7 7
r 0.113065 0 2 cbr 1000 ------- 0 0.0 3.0 8 8
+ 0.113065 2 3 cbr 1000 ------- 0 0.0 3.0 8 8
r 0.113105 0 2 cbr 1000 ------- 0 0.0 3.0 9 9
+ 0.113105 2 3 cbr 1000 ------- 0 0.0 3.0 9 9
- 0.11704 2 3 cbr 1000 ------- 0 0.0 3.0 2 2
+ 0.12381 0 2 cbr 1000 ------- 0 0.0 3.0 10 10
- 0.12381 0 2 cbr 1000 ------- 0 0.0 3.0 10 10
+ 0.12381 0 2 cbr 1000 ------- 0 0.0 3.0 11 11
+ 0.12381 0 2 cbr 1000 ------- 0 0.0 3.0 12 12
+ 0.12381 0 2 cbr 1000 ------- 0 0.0 3.0 13 13
+ 0.12381 0 2 cbr 1000 ------- 0 0.0 3.0 14 14
- 0.12385 0 2 cbr 1000 ------- 0 0.0 3.0 11 11
- 0.12389 0 2 cbr 1000 ------- 0 0.0 3.0 12 12
- 0.12393 0 2 cbr 1000 ------- 0 0.0 3.0 13 13
- 0.12397 0 2 cbr 1000 ------- 0 0.0 3.0 14 14
r 0.12485 0 2 cbr 1000 ------- 0 0.0 3.0 10 10
+ 0.12485 2 3 cbr 1000 ------- 0 0.0 3.0 10 10
r 0.12489 0 2 cbr 1000 ------- 0 0.0 3.0 11 11
+ 0.12489 2 3 cbr 1000 ------- 0 0.0 3.0 11 11
r 0.12493 0 2 cbr 1000 ------- 0 0.0 3.0 12 12
+ 0.12493 2 3 cbr 1000 ------- 0 0.0 3.0 12 12
r 0.12497 0 2 cbr 1000 ------- 0 0.0 3.0 13 13
+ 0.12497 2 3 cbr 1000 ------- 0 0.0 3.0 13 13
r 0.12501 0 2 cbr 1000 ------- 0 0.0 3.0 14 14
+ 0.12501 2 3 cbr 1000 ------- 0 0.0 3.0 14 14
- 0.12504 2 3 cbr 1000 ------- 0 0.0 3.0 3 3
- 0.13304 2 3 cbr 1000 ------- 0 0.0 3.0 4 4
+ 0.135714 0 2 cbr 1000 ------- 0 0.0 3.0 15 15
- 0.135714 0 2 cbr 1000 ------- 0 0.0 3.0 15 15
+ 0.135714 0 2 cbr 1000 ------- 0 0.0 3.0 16 16
+ 0.135714 0 2 cbr 1000 ------- 0 0.0 3.0 17 17
+ 0.135714 0 2 cbr 1000 ------- 0 0.0 3.0 18 18
+ 0.135714 0 2 cbr 1000 ------- 0 0.0 3.0 19 19
- 0.135754 0 2 cbr 1000 ------- 0 0.0 3.0 16 16
- 0.135794 0 2 cbr 1000 ------- 0 0.0 3.0 17 17
- 0.135834 0 2 cbr 1000 ------- 0 0.0 3.0 18 18
- 0.135874 0 2 cbr 1000 ------- 0 0.0 3.0 19 19
r 0.136754 0 2 cbr 1000 ------- 0 0.0 3.0 15 15
+ 0.136754 2 3 cbr 1000 ------- 0 0.0 3.0 15 15
r 0.136794 0 2 cbr 1000 ------- 0 0.0 3.0 16 16
+ 0.136794 2 3 cbr 1000 ------- 0 0.0 3.0 16 16
r 0.136834 0 2 cbr 1000 ------- 0 0.0 3.0 17 17
+ 0.136834 2 3 cbr 1000 ------- 0 0.0 3.0 17 17
r 0.136874 0 2 cbr 1000 ------- 0 0.0 3.0 18 18
+ 0.136874 2 3 cbr 1000 ------- 0 0.0 3.0 18 18
r 0.136914 0 2 cbr 1000 ------- 0 0.0 3.0 19 19
+ 0.136914 2 3 cbr 1000 ------- 0 0.0 3.0 19 19
- 0.14104 2 3 cbr 1000 ------- 0 0.0 3.0 5 5
+ 0.147619 0 2 cbr 1000 ------- 0 0.0 3.0 20 20
- 0.147619 0 2 cbr 1000 ------- 0 0.0 3.0 20 20
+ 0.147619 0 2 cbr 1000 ------- 0 0.0 3.0 21 21
+ 0.147619 0 2 cbr 1000 ------- 0 0.0 3.0 22 22
+ 0.147619 0 2 cbr 1000 ------- 0 0.0 3.0 23 23
+ 0.147619 0 2 cbr 1000 ------- 0 0.0 3.0 24 24
- 0.147659 0 2 cbr 1000 ------- 0 0.0 3.0 21 21
- 0.147699 0 2 cbr 1000 ------- 0 0.0 3.0 22 22
- 0.147739 0 2 cbr 1000 ------- 0 0.0 3.0 23 23
- 0.147779 0 2 cbr 1000 ------- 0 0.0 3.0 24 24
r 0.148659 0 2 cbr 1000 ------- 0 0.0 3.0 20 20
+ 0.148659 2 3 cbr 1000 ------- 0 0.0 3.0 20 20
r 0.148699 0 2 cbr 1000 ------- 0 0.0 3.0 21 21
+ 0.148699 2 3 cbr 1000 ------- 0 0.0 3.0 21 21
r 0.148739 0 2 cbr 1000 ------- 0 0.0 3.0 22 22
+ 0.148739 2 3 cbr 1000 ------- 0 0.0 3.0 22 22
r 0.148779 0 2 cbr 1000 ------- 0 0.0 3.0 23 23
+ 0.148779 2 3 cbr 1000 ------- 0 0.0 3.0 23 23
r 0.148819 0 2 cbr 1000 ------- 0 0.0 3.0 24 24
+ 0.148819 2 3 cbr 1000 ------- 0 0.0 3.0 24 24
- 0.14904 2 3 cbr 1000 ------- 0 0.0 3.0 6 6
- 0.15704 2 3 cbr 1000 ------- 0 0.0 3.0 7 7
+ 0.159524 0 2 cbr 1000 ------- 0 0.0 3.0 25 25
- 0.159524 0 2 cbr 1000 ------- 0 0.0 3.0 25 25
+ 0.159524 0 2 cbr 1000 ------- 0 0.0 3.0 26 26
+ 0.159524 0 2 cbr 1000 ------- 0 0.0 3.0 27 27
+ 0.159524 0 2 cbr 1000 ------- 0 0.0 3.0 28 28
+ 0.159524 0 2 cbr 1000 ------- 0 0.0 3.0 29 29
- 0.159564 0 2 cbr 1000 ------- 0 0.0 3.0 26 26
- 0.159604 0 2 cbr 1000 ------- 0 0.0 3.0 27 27
- 0.159644 0 2 cbr 1000 ------- 0 0.0 3.0 28 28
- 0.159684 0 2 cbr 1000 ------- 0 0.0 3.0 29 29
r 0.160564 0 2 cbr 1000 ------- 0 0.0 3.0 25 25
+ 0.160564 2 3 cbr 1000 ------- 0 0.0 3.0 25 25
r 0.160604 0 2 cbr 1000 ------- 0 0.0 3.0 26 26
+ 0.160604 2 3 cbr 1000 ------- 0 0.0 3.0 26 26
r 0.160644 0 2 cbr 1000 ------- 0 0.0 3.0 27 27
+ 0.160644 2 3 cbr 1000 ------- 0 0.0 3.0 27 27
r 0.160684 0 2 cbr 1000 ------- 0 0.0 3.0 28 28
+ 0.160684 2 3 cbr 1000 ------- 0 0.0 3.0 28 28
r 0.160724 0 2 cbr 1000 ------- 0 0.0 3.0 29 29
+ 0.160724 2 3 cbr 1000 ------- 0 0.0 3.0 29 29
- 0.16504 2 3 cbr 1000 ------- 0 0.0 3.0 8 8
+ 0.171429 0 2 cbr 1000 ------- 0 0.0 3.0 30 30
- 0.171429 0 2 cbr 1000 ------- 0 0.0 3.0 30 30
+ 0.171429 0 2 cbr 1000 ------- 0 0.0 3.0 31 31
+ 0.171429 0 2 cbr 1000 ------- 0 0.0 3.0 32 32
+ 0.171429 0 2 cbr 1000 ------- 0 0.0 3.0 33 33
+ 0.171429 0 2 cbr 1000 ------- 0 0.0 3.0 34 34
- 0.171469 0 2 cbr 1000 ------- 0 0.0 3.0 31 31
- 0.171509 0 2 cbr 1000 ------- 0 0.0 3.0 32 32
- 0.171549 0 2 cbr 1000 ------- 0 0.0 3.0 33 33
- 0.171589 0 2 cbr 1000 ------- 0 0.0 3.0 34 34
r 0.172469 0 2 cbr 1000 ------- 0 0.0 3.0 30 30
+ 0.172469 2 3 cbr 1000 ------- 0 0.0 3.0 30 30
r 0.172509 0 2 cbr 1000 ------- 0 0.0 3.0 31 31
+ 0.172509 2 3 cbr 1000 ------- 0 0.0 3.0 31 31
r 0.172549 0 2 cbr 1000 ------- 0 0.0 3.0 32 32
+ 0.172549 2 3 cbr 1000 ------- 0 0.0 3.0 32 32
r 0.172589 0 2 cbr 1000 ------- 0 0.0 3.0 33 33
+ 0.172589 2 3 cbr 1000 ------- 0 0.0 3.0 33 33
r 0.172629 0 2 cbr 1000 ------- 0 0.0 3.0 34 34
+ 0.172629 2 3 cbr 1000 ------- 0 0.0 3.0 34 34
- 0.17304 2 3 cbr 1000 ------- 0 0.0 3.0 9 9
- 0.18104 2 3 cbr 1000 ------- 0 0.0 3.0 10 10
+ 0.183333 0 2 cbr 1000 ------- 0 0.0 3.0 35 35
- 0.183333 0 2 cbr 1000 ------- 0 0.0 3.0 35 35
+ 0.183333 0 2 cbr 1000 ------- 0 0.0 3.0 36 36
+ 0.183333 0 2 cbr 1000 ------- 0 0.0 3.0 37 37
+ 0.183333 0 2 cbr 1000 ------- 0 0.0 3.0 38 38
+ 0.183333 0 2 cbr 1000 ------- 0 0.0 3.0 39 39
- 0.183373 0 2 cbr 1000 ------- 0 0.0 3.0 36 36
- 0.183413 0 2 cbr 1000 ------- 0 0.0 3.0 37 37
- 0.183453 0 2 cbr 1000 ------- 0 0.0 3.0 38 38
- 0.183493 0 2 cbr 1000 ------- 0 0.0 3.0 39 39
r 0.184373 0 2 cbr 1000 ------- 0 0.0 3.0 35 35
+ 0.184373 2 3 cbr 1000 ------- 0 0.0 3.0 35 35
r 0.184413 0 2 cbr 1000 ------- 0 0.0 3.0 36 36
+ 0.184413 2 3 cbr 1000 ------- 0 0.0 3.0 36 36
r 0.184453 0 2 cbr 1000 ------- 0 0.0 3.0 37 37
+ 0.184453 2 3 cbr 1000 ------- 0 0.0 3.0 37 37
r 0.184493 0 2 cbr 1000 ------- 0 0.0 3.0 38 38
+ 0.184493 2 3 cbr 1000 ------- 0 0.0 3.0 38 38
r 0.184533 0 2 cbr 1000 ------- 0 0.0 3.0 39 39
+ 0.184533 2 3 cbr 1000 ------- 0 0.0 3.0 39 39
- 0.18904 2 3 cbr 1000 ------- 0 0.0 3.0 11 11
+ 0.195238 0 2 cbr 1000 ------- 0 0.0 3.0 40 40
- 0.195238 0 2 cbr 1000 ------- 0 0.0 3.0 40 40
+ 0.195238 0 2 cbr 1000 ------- 0 0.0 3.0 41 41
+ 0.195238 0 2 cbr 1000 ------- 0 0.0 3.0 42 42
+ 0.195238 0 2 cbr 1000 ------- 0 0.0 3.0 43 43
+ 0.195238 0 2 cbr 1000 ------- 0 0.0 3.0 44 44
- 0.195278 0 2 cbr 1000 ------- 0 0.0 3.0 41 41
- 0.195318 0 2 cbr 1000 ------- 0 0.0 3.0 42 42
- 0.195358 0 2 cbr 1000 ------- 0 0.0 3.0 43 43
- 0.195398 0 2 cbr 1000 ------- 0 0.0 3.0 44 44
r 0.196278 0 2 cbr 1000 ------- 0 0.0 3.0 40 40
+ 0.196278 2 3 cbr 1000 ------- 0 0.0 3.0 40 40
r 0.196318 0 2 cbr 1000 ------- 0 0.0 3.0 41 41
+ 0.196318 2 3 cbr 1000 ------- 0 0.0 3.0 41 41
r 0.196358 0 2 cbr 1000 ------- 0 0.0 3.0 42 42
+ 0.196358 2 3 cbr 1000 ------- 0 0.0 3.0 42 42
r 0.196398 0 2 cbr 1000 ------- 0 0.0 3.0 43 43
+ 0.196398 2 3 cbr 1000 ------- 0 0.0 3.0 43 43
r 0.196438 0 2 cbr 1000 ------- 0 0.0 3.0 44 44
+ 0.196438 2 3 cbr 1000 ------- 0 0.0 3.0 44 44
- 0.19704 2 3 cbr 1000 ------- 0 0.0 3.0 12 12
+ 0.2 0 2 cbr 210 ------- 0 0.0 3.0 45 45
- 0.2 0 2 cbr 210 ------- 0 0.0 3.0 45 45
r 0.201008 0 2 cbr 210 ------- 0 0.0 3.0 45 45
+ 0.201008 2 3 cbr 210 ------- 0 0.0 3.0 45 45
+ 0.20375 0 2 cbr 210 ------- 0 0.0 3.0 46 46
- 0.20375 0 2 cbr 210 ------- 0 0.0 3.0 46 46
r 0.204758 0 2 cbr 210 ------- 0 0.0 3.0 46 46
+ 0.204758 2 3 cbr 210 ------- 0 0.0 3.0 46 46
- 0.20504 2 3 cbr 1000 ------- 0 0.0 3.0 13 13
+ 0.207143 0 2 cbr 1000 ------- 0 0.0 3.0 47 47
- 0.207143 0 2 cbr 1000 ------- 0 0.0 3.0 47 47
+ 0.207143 0 2 cbr 1000 ------- 0 0.0 3.0 48 48
+ 0.207143 0 2 cbr 1000 ------- 0 0.0 3.0 49 49
+ 0.207143 0 2 cbr 1000 ------- 0 0.0 3.0 50 50
+ 0.207143 0 2 cbr 1000 ------- 0 0.0 3.0 51 51
- 0.207183 0 2 cbr 1000 ------- 0 0.0 3.0 48 48
- 0.207223 0 2 cbr 1000 ------- 0 0.0 3.0 49 49
- 0.207263 0 2 cbr 1000 ------- 0 0.0 3.0 50 50
- 0.207303 0 2 cbr 1000 ------- 0 0.0 3.0 51 51
+ 0.2075 0 2 cbr 210 ------- 0 0.0 3.0 52 52
- 0.2075 0 2 cbr 210 ------- 0 0.0 3.0 52 52
r 0.208183 0 2 cbr 1000 ------- 0 0.0 3.0 47 47
+ 0.208183 2 3 cbr 1000 ------- 0 0.0 3.0 47 47
r 0.208223 0 2 cbr 1000 ------- 0 0.0 3.0 48 48
+ 0.208223 2 3 cbr 1000 ------- 0 0.0 3.0 48 48
r 0.208263 0 2 cbr 1000 ------- 0 0.0 3.0 49 49
+ 0.208263 2 3 cbr 1000 ------- 0 0.0 3.0 49 49
r 0.208303 0 2 cbr 1000 ------- 0 0.0 3.0 50 50
+ 0.208303 2 3 cbr 1000 ------- 0 0.0 3.0 50 50
r 0.208343 0 2 cbr 1000 ------- 0 0.0 3.0 51 51
+ 0.208343 2 3 cbr 1000 ------- 0 0.0 3.0 51 51
r 0.208508 0 2 cbr 210 ------- 0 0.0 3.0 52 52
+ 0.208508 2 3 cbr 210 ------- 0 0.0 3.0 52 52
+ 0.21125 0 2 cbr 210 ------- 0 0.0 3.0 53 53
- 0.21125 0 2 cbr 210 ------- 0 0.0 3.0 53 53
r 0.212258 0 2 cbr 210 ------- 0 0.0 3.0 53 53
+ 0.212258 2 3 cbr 210 ------- 0 0.0 3.0 53 53
- 0.21304 2 3 cbr 1000 ------- 0 0.0 3.0 14 14
+ 0.215 0 2 cbr 210 ------- 0 0.0 3.0 54 54
- 0.215 0 2 cbr 210 ------- 0 0.0 3.0 54 54
r 0.216008 0 2 cbr 210 ------- 0 0.0 3.0 54 54
+ 0.216008 2 3 cbr 210 ------- 0 0.0 3.0 54 54
+ 0.21875 0 2 cbr 210 ------- 0 0.0 3.0 55 55
- 0.21875 0 2 cbr 210 ------- 0 0.0 3.0 55 55
+ 0.219048 0 2 cbr 1000 ------- 0 0.0 3.0 56 56
- 0.219048 0 2 cbr 1000 ------- 0 0.0 3.0 56 56
+ 0.219048 0 2 cbr 1000 ------- 0 0.0 3.0 57 57
+ 0.219048 0 2 cbr 1000 ------- 0 0.0 3.0 58 58
+ 0.219048 0 2 cbr 1000 ------- 0 0.0 3.0 59 59
+ 0.219048 0 2 cbr 1000 ------- 0 0.0 3.0 60 60
- 0.219088 0 2 cbr 1000 ------- 0 0.0 3.0 57 57
- 0.219128 0 2 cbr 1000 ------- 0 0.0 3.0 58 58
- 0.219168 0 2 cbr 1000 ------- 0 0.0 3.0 59 59
- 0.219208 0 2 cbr 1000 ------- 0 0.0 3.0 60 60
r 0.219758 0 2 cbr 210 ------- 0 0.0 3.0 55 55
+ 0.219758 2 3 cbr 210 ------- 0 0.0 3.0 55 55
r 0.220088 0 2 cbr 1000 ------- 0 0.0 3.0 56 56
+ 0.220088 2 3 cbr 1000 ------- 0 0.0 3.0 56 56
r 0.220128 0 2 cbr 1000 ------- 0 0.0 3.0 57 57
+ 0.220128 2 3 cbr 1000 ------- 0 0.0 3.0 57 57
r 0.220168 0 2 cbr 1000 ------- 0 0.0 3.0 58 58
+ 0.220168 2 3 cbr 1000 ------- 0 0.0 3.0 58 58
r 0.220208 0 2 cbr 1000 ------- 0 0.0 3.0 59 59
+ 0.220208 2 3 cbr 1000 ------- 0 0.0 3.0 59 59
r 0.220248 0 2 cbr 1000 ------- 0 0.0 3.0 60 60
+ 0.220248 2 3 cbr 1000 ------- 0 0.0 3.0 60 60
- 0.22104 2 3 cbr 1000 ------- 0 0.0 3.0 15 15
+ 0.2225 0 2 cbr 210 ------- 0 0.0 3.0 61 61
- 0.2225 0 2 cbr 210 ------- 0 0.0 3.0 61 61
r 0.223508 0 2 cbr 210 ------- 0 0.0 3.0 61 61
+ 0.223508 2 3 cbr 210 ------- 0 0.0 3.0 61 61
+ 0.22625 0 2 cbr 210 ------- 0 0.0 3.0 62 62
- 0.22625 0 2 cbr 210 ------- 0 0.0 3.0 62 62
r 0.227258 0 2 cbr 210 ------- 0 0.0 3.0 62 62
+ 0.227258 2 3 cbr 210 ------- 0 0.0 3.0 62 62
- 0.22904 2 3 cbr 1000 ------- 0 0.0 3.0 16 16
+ 0.23 0 2 cbr 210 ------- 0 0.0 3.0 63 63
- 0.23 0 2 cbr 210 ------- 0 0.0 3.0 63 63
+ 0.230952 0 2 cbr 1000 ------- 0 0.0 3.0 64 64
- 0.230952 0 2 cbr 1000 ------- 0 0.0 3.0 64 64
+ 0.230952 0 2 cbr 1000 ------- 0 0.0 3.0 65 65
+ 0.230952 0 2 cbr 1000 ------- 0 0.0 3.0 66 66
+ 0.230952 0 2 cbr 1000 ------- 0 0.0 3.0 67 67
+ 0.230952 0 2 cbr 1000 ------- 0 0.0 3.0 68 68
- 0.230992 0 2 cbr 1000 ------- 0 0.0 3.0 65 65
r 0.231008 0 2 cbr 210 ------- 0 0.0 3.0 63 63
+ 0.231008 2 3 cbr 210 ------- 0 0.0 3.0 63 63
- 0.231032 0 2 cbr 1000 ------- 0 0.0 3.0 66 66
- 0.231072 0 2 cbr 1000 ------- 0 0.0 3.0 67 67
- 0.231112 0 2 cbr 1000 ------- 0 0.0 3.0 68 68
r 0.231992 0 2 cbr 1000 ------- 0 0.0 3.0 64 64
+ 0.231992 2 3 cbr 1000 ------- 0 0.0 3.0 64 64
r 0.232032 0 2 cbr 1000 ------- 0 0.0 3.0 65 65
+ 0.232032 2 3 cbr 1000 ------- 0 0.0 3.0 65 65
r 0.232072 0 2 cbr 1000 ------- 0 0.0 3.0 66 66
+ 0.232072 2 3 cbr 1000 ------- 0 0.0 3.0 66 66
d 0.232072 2 3 cbr 1000 ------- 0 0.0 3.0 66 66
r 0.232112 0 2 cbr 1000 ------- 0 0.0 3.0 67 67
+ 0.232112 2 3 cbr 1000 ------- 0 0.0 3.0 67 67
d 0.232112 2 3 cbr 1000 ------- 0 0.0 3.0 67 67
r 0.232152 0 2 cbr 1000 ------- 0 0.0 3.0 68 68
+ 0.232152 2 3 cbr 1000 ------- 0 0.0 3.0 68 68
d 0.232152 2 3 cbr 1000 ------- 0 0.0 3.0 68 68
+ 0.23375 0 2 cbr 210 ------- 0 0.0 3.0 69 69
- 0.23375 0 2 cbr 210 ------- 0 0.0 3.0 69 69
r 0.234758 0 2 cbr 210 ------- 0 0.0 3.0 69 69
+ 0.234758 2 3 cbr 210 ------- 0 0.0 3.0 69 69
d 0.234758 2 3 cbr 210 ------- 0 0.0 3.0 69 69
- 0.23704 2 3 cbr 1000 ------- 0 0.0 3.0 17 17
+ 0.2375 0 2 cbr 210 ------- 0 0.0 3.0 70 70
- 0.2375 0 2 cbr 210 ------- 0 0.0 3.0 70 70
r 0.238508 0 2 cbr 210 ------- 0 0.0 3.0 70 70
+ 0.238508 2 3 cbr 210 ------- 0 0.0 3.0 70 70
+ 0.24125 0 2 cbr 210 ------- 0 0.0 3.0 71 71
- 0.24125 0 2 cbr 210 ------- 0 0.0 3.0 71 71
r 0.242258 0 2 cbr 210 ------- 0 0.0 3.0 71 71
+ 0.242258 2 3 cbr 210 ------- 0 0.0 3.0 71 71
d 0.242258 2 3 cbr 210 ------- 0 0.0 3.0 71 71
+ 0.242857 0 2 cbr 1000 ------- 0 0.0 3.0 72 72
- 0.242857 0 2 cbr 1000 ------- 0 0.0 3.0 72 72
+ 0.242857 0 2 cbr 1000 ------- 0 0.0 3.0 73 73
+ 0.242857 0 2 cbr 1000 ------- 0 0.0 3.0 74 74
+ 0.242857 0 2 cbr 1000 ------- 0 0.0 3.0 75 75
+ 0.242857 0 2 cbr 1000 ------- 0 0.0 3.0 76 76
- 0.242897 0 2 cbr 1000 ------- 0 0.0 3.0 73 73
- 0.242937 0 2 cbr 1000 ------- 0 0.0 3.0 74 74
- 0.242977 0 2 cbr 1000 ------- 0 0.0 3.0 75 75
- 0.243017 0 2 cbr 1000 ------- 0 0.0 3.0 76 76
r 0.243897 0 2 cbr 1000 ------- 0 0.0 3.0 72 72
+ 0.243897 2 3 cbr 1000 ------- 0 0.0 3.0 72 72
d 0.243897 2 3 cbr 1000 ------- 0 0.0 3.0 72 72
r 0.243937 0 2 cbr 1000 ------- 0 0.0 3.0 73 73
+ 0.243937 2 3 cbr 1000 ------- 0 0.0 3.0 73 73
d 0.243937 2 3 cbr 1000 ------- 0 0.0 3.0 73 73
r 0.243977 0 2 cbr 1000 ------- 0 0.0 3.0 74 74
+ 0.243977 2 3 cbr 1000 ------- 0 0.0 3.0 74 74
d 0.243977 2 3 cbr 1000 ------- 0 0.0 3.0 74 74
r 0.244017 0 2 cbr 1000 ------- 0 0.0 3.0 75 75
+ 0.244017 2 3 cbr 1000 ------- 0 0.0 3.0 75 75
d 0.244017 2 3 cbr 1000 ------- 0 0.0 3.0 75 75
r 0.244057 0 2 cbr 1000 ------- 0 0.0 3.0 76 76
+ 0.244057 2 3 cbr 1000 ------- 0 0.0 3.0 76 76
d 0.244057 2 3 cbr 1000 ------- 0 0.0 3.0 76 76
+ 0.245 0 2 cbr 210 ------- 0 0.0 3.0 77 77
- 0.245 0 2 cbr 210 ------- 0 0.0 3.0 77 77
- 0.24504 2 3 cbr 1000 ------- 0 0.0 3.0 18 18
r 0.246008 0 2 cbr 210 ------- 0 0.0 3.0 77 77
+ 0.246008 2 3 cbr 210 ------- 0 0.0 3.0 77 77
+ 0.24875 0 2 cbr 210 ------- 0 0.0 3.0 78 78
- 0.24875 0 2 cbr 210 ------- 0 0.0 3.0 78 78
r 0.249758 0 2 cbr 210 ------- 0 0.0 3.0 78 78
+ 0.249758 2 3 cbr 210 ------- 0 0.0 3.0 78 78
d 0.249758 2 3 cbr 210 ------- 0 0.0 3.0 78 78
+ 0.2525 0 2 cbr 210 ------- 0 0.0 3.0 79 79
- 0.2525 0 2 cbr 210 ------- 0 0.0 3.0 79 79
- 0.25304 2 3 cbr 1000 ------- 0 0.0 3.0 19 19
r 0.253508 0 2 cbr 210 ------- 0 0.0 3.0 79 79
+ 0.253508 2 3 cbr 210 ------- 0 0.0 3.0 79 79
+ 0.254762 0 2 cbr 1000 ------- 0 0.0 3.0 80 80
- 0.254762 0 2 cbr 1000 ------- 0 0.0 3.0 80 80
+ 0.254762 0 2 cbr 1000 ------- 0 0.0 3.0 81 81
+ 0.254762 0 2 cbr 1000 ------- 0 0.0 3.0 82 82
+ 0.254762 0 2 cbr 1000 ------- 0 0.0 3.0 83 83
+ 0.254762 0 2 cbr 1000 ------- 0 0.0 3.0 84 84
- 0.254802 0 2 cbr 1000 ------- 0 0.0 3.0 81 81
- 0.254842 0 2 cbr 1000 ------- 0 0.0 3.0 82 82
- 0.254882 0 2 cbr 1000 ------- 0 0.0 3.0 83 83
- 0.254922 0 2 cbr 1000 ------- 0 0.0 3.0 84 84
r 0.255802 0 2 cbr 1000 ------- 0 0.0 3.0 80 80
+ 0.255802 2 3 cbr 1000 ------- 0 0.0 3.0 80 80
d 0.255802 2 3 cbr 1000 ------- 0 0.0 3.0 80 80
r 0.255842 0 2 cbr 1000 ------- 0 0.0 3.0 81 81
+ 0.255842 2 3 cbr 1000 ------- 0 0.0 3.0 81 81
d 0.255842 2 3 cbr 1000 ------- 0 0.0 3.0 81 81
r 0.255882 0 2 cbr 1000 ------- 0 0.0 3.0 82 82
+ 0.255882 2 3 cbr 1000 ------- 0 0.0 3.0 82 82
d 0.255882 2 3 cbr 1000 ------- 0 0.0 3.0 82 82
r 0.255922 0 2 cbr 1000 ------- 0 0.0 3.0 83 83
+ 0.255922 2 3 cbr 1000 ------- 0 0.0 3.0 83 83
d 0.255922 2 3 cbr 1000 ------- 0 0.0 3.0 83 83
r 0.255962 0 2 cbr 1000 ------- 0 0.0 3.0 84 84
+ 0.255962 2 3 cbr 1000 ------- 0 0.0 3.0 84 84
d 0.255962 2 3 cbr 1000 ------- 0 0.0 3.0 84 84
+ 0.25625 0 2 cbr 210 ------- 0 0.0 3.0 85 85
- 0.25625 0 2 cbr 210 ------- 0 0.0 3.0 85 85
r 0.257258 0 2 cbr 210 ------- 0 0.0 3.0 85 85
+ 0.257258 2 3 cbr 210 ------- 0 0.0 3.0 85 85
d 0.257258 2 3 cbr 210 ------- 0 0.0 3.0 85 85
+ 0.26 0 2 cbr 210 ------- 0 0.0 3.0 86 86
- 0.26 0 2 cbr 210 ------- 0 0.0 3.0 86 86
r 0.261008 0 2 cbr 210 ------- 0 0.0 3.0 86 86
+ 0.261008 2 3 cbr 210 ------- 0 0.0 3.0 86 86
d 0.261008 2 3 cbr 210 ------- 0 0.0 3.0 86 86
- 0.26104 2 3 cbr 1000 ------- 0 0.0 3.0 20 20
+ 0.26375 0 2 cbr 210 ------- 0 0.0 3.0 87 87
- 0.26375 0 2 cbr 210 ------- 0 0.0 3.0 87 87
r 0.264758 0 2 cbr 210 ------- 0 0.0 3.0 87 87
+ 0.264758 2 3 cbr 210 ------- 0 0.0 3.0 87 87
+ 0.266667 0 2 cbr 1000 ------- 0 0.0 3.0 88 88
- 0.266667 0 2 cbr 1000 ------- 0 0.0 3.0 88 88
+ 0.266667 0 2 cbr 1000 ------- 0 0.0 3.0 89 89
+ 0.266667 0 2 cbr 1000 ------- 0 0.0 3.0 90 90
+ 0.266667 0 2 cbr 1000 ------- 0 0.0 3.0 91 91
+ 0.266667 0 2 cbr 1000 ------- 0 0.0 3.0 92 92
- 0.266707 0 2 cbr 1000 ------- 0 0.0 3.0 89 89
- 0.266747 0 2 cbr 1000 ------- 0 0.0 3.0 90 90
- 0.266787 0 2 cbr 1000 ------- 0 0.0 3.0 91 91
- 0.266827 0 2 cbr 1000 ------- 0 0.0 3.0 92 92
+ 0.2675 0 2 cbr 210 ------- 0 0.0 3.0 93 93
- 0.2675 0 2 cbr 210 ------- 0 0.0 3.0 93 93
r 0.267707 0 2 cbr 1000 ------- 0 0.0 3.0 88 88
+ 0.267707 2 3 cbr 1000 ------- 0 0.0 3.0 88 88
d 0.267707 2 3 cbr 1000 ------- 0 0.0 3.0 88 88
r 0.267747 0 2 cbr 1000 ------- 0 0.0 3.0 89 89
+ 0.267747 2 3 cbr 1000 ------- 0 0.0 3.0 89 89
d 0.267747 2 3 cbr 1000 ------- 0 0.0 3.0 89 89
r 0.267787 0 2 cbr 1000 ------- 0 0.0 3.0 90 90
+ 0.267787 2 3 cbr 1000 ------- 0 0.0 3.0 90 90
d 0.267787 2 3 cbr 1000 ------- 0 0.0 3.0 90 90
r 0.267827 0 2 cbr 1000 ------- 0 0.0 3.0 91 91
+ 0.267827 2 3 cbr 1000 ------- 0 0.0 3.0 91 91
d 0.267827 2 3 cbr 1000 ------- 0 0.0 3.0 91 91
r 0.267867 0 2 cbr 1000 ------- 0 0.0 3.0 92 92
+ 0.267867 2 3 cbr 1000 ------- 0 0.0 3.0 92 92
d 0.267867 2 3 cbr 1000 ------- 0 0.0 3.0 92 92
r 0.268508 0 2 cbr 210 ------- 0 0.0 3.0 93 93
+ 0.268508 2 3 cbr 210 ------- 0 0.0 3.0 93 93
d 0.268508 2 3 cbr 210 ------- 0 0.0 3.0 93 93
- 0.26904 2 3 cbr 1000 ------- 0 0.0 3.0 21 21
+ 0.27125 0 2 cbr 210 ------- 0 0.0 3.0 94 94
- 0.27125 0 2 cbr 210 ------- 0 0.0 3.0 94 94
r 0.272258 0 2 cbr 210 ------- 0 0.0 3.0 94 94
+ 0.272258 2 3 cbr 210 ------- 0 0.0 3.0 94 94
+ 0.275 0 2 cbr 210 ------- 0 0.0 3.0 95 95
- 0.275 0 2 cbr 210 ------- 0 0.0 3.0 95 95
r 0.276008 0 2 cbr 210 ------- 0 0.0 3.0 95 95
+ 0.276008 2 3 cbr 210 ------- 0 0.0 3.0 95 95
d 0.276008 2 3 cbr 210 ------- 0 0.0 3.0 95 95
- 0.27704 2 3 cbr 1000 ------- 0 0.0 3.0 22 22
+ 0.278571 0 2 cbr 1000 ------- 0 0.0 3.0 96 96
- 0.278571 0 2 cbr 1000 ------- 0 0.0 3.0 96 96
+ 0.278571 0 2 cbr 1000 ------- 0 0.0 3.0 97 97
+ 0.278571 0 2 cbr 1000 ------- 0 0.0 3.0 98 98
+ 0.278571 0 2 cbr 1000 ------- 0 0.0 3.0 99 99
+ 0.278571 0 2 cbr 1000 ------- 0 0.0 3.0 100 100
- 0.278611 0 2 cbr 1000 ------- 0 0.0 3.0 97 97
- 0.278651 0 2 cbr 1000 ------- 0 0.0 3.0 98 98
- 0.278691 0 2 cbr 1000 ------- 0 0.0 3.0 99 99
- 0.278731 0 2 cbr 1000 ------- 0 0.0 3.0 100 100
+ 0.27875 0 2 cbr 210 ------- 0 0.0 3.0 101 101
- 0.278771 0 2 cbr 210 ------- 0 0.0 3.0 101 101
r 0.279611 0 2 cbr 1000 ------- 0 0.0 3.0 96 96
+ 0.279611 2 3 cbr 1000 ------- 0 0.0 3.0 96 96
r 0.279651 0 2 cbr 1000 ------- 0 0.0 3.0 97 97
+ 0.279651 2 3 cbr 1000 ------- 0 0.0 3.0 97 97
d 0.279651 2 3 cbr 1000 ------- 0 0.0 3.0 97 97
r 0.279691 0 2 cbr 1000 ------- 0 0.0 3.0 98 98
+ 0.279691 2 3 cbr 1000 ------- 0 0.0 3.0 98 98
d 0.279691 2 3 cbr 1000 ------- 0 0.0 3.0 98 98
r 0.279731 0 2 cbr 1000 ------- 0 0.0 3.0 99 99
+ 0.279731 2 3 cbr 1000 ------- 0 0.0 3.0 99 99
d 0.279731 2 3 cbr 1000 ------- 0 0.0 3.0 99 99
r 0.279771 0 2 cbr 1000 ------- 0 0.0 3.0 100 100
+ 0.279771 2 3 cbr 1000 ------- 0 0.0 3.0 100 100
d 0.279771 2 3 cbr 1000 ------- 0 0.0 3.0 100 100
r 0.27978 0 2 cbr 210 ------- 0 0.0 3.0 101 101
+ 0.27978 2 3 cbr 210 ------- 0 0.0 3.0 101 101
d 0.27978 2 3 cbr 210 ------- 0 0.0 3.0 101 101
+ 0.2825 0 2 cbr 210 ------- 0 0.0 3.0 102 102
- 0.2825 0 2 cbr 210 ------- 0 0.0 3.0 102 102
r 0.283508 0 2 cbr 210 ------- 0 0.0 3.0 102 102
+ 0.283508 2 3 cbr 210 ------- 0 0.0 3.0 102 102
d 0.283508 2 3 cbr 210 ------- 0 0.0 3.0 102 102
- 0.28504 2 3 cbr 1000 ------- 0 0.0 3.0 23 23
+ 0.28625 0 2 cbr 210 ------- 0 0.0 3.0 103 103
- 0.28625 0 2 cbr 210 ------- 0 0.0 3.0 103 103
r 0.287258 0 2 cbr 210 ------- 0 0.0 3.0 103 103
+ 0.287258 2 3 cbr 210 ------- 0 0.0 3.0 103 103
+ 0.29 0 2 cbr 210 ------- 0 0.0 3.0 104 104
- 0.29 0 2 cbr 210 ------- 0 0.0 3.0 104 104
+ 0.290476 0 2 cbr 1000 ------- 0 0.0 3.0 105 105
- 0.290476 0 2 cbr 1000 ------- 0 0.0 3.0 105 105
+ 0.290476 0 2 cbr 1000 ------- 0 0.0 3.0 106 106
+ 0.290476 0 2 cbr 1000 ------- 0 0.0 3.0 107 107
+ 0.290476 0 2 cbr 1000 ------- 0 0.0 3.0 108 108
+ 0.290476 0 2 cbr 1000 ------- 0 0.0 3.0 109 109
- 0.290516 0 2 cbr 1000 ------- 0 0.0 3.0 106 106
- 0.290556 0 2 cbr 1000 ------- 0 0.0 3.0 107 107
- 0.290596 0 2 cbr 1000 ------- 0 0.0 3.0 108 108
- 0.290636 0 2 cbr 1000 ------- 0 0.0 3.0 109 109
r 0.291008 0 2 cbr 210 ------- 0 0.0 3.0 104 104
+ 0.291008 2 3 cbr 210 ------- 0 0.0 3.0 104 104
d 0.291008 2 3 cbr 210 ------- 0 0.0 3.0 104 104
r 0.291516 0 2 cbr 1000 ------- 0 0.0 3.0 105 105
+ 0.291516 2 3 cbr 1000 ------- 0 0.0 3.0 105 105
d 0.291516 2 3 cbr 1000 ------- 0 0.0 3.0 105 105
r 0.291556 0 2 cbr 1000 ------- 0 0.0 3.0 106 106
+ 0.291556 2 3 cbr 1000 ------- 0 0.0 3.0 106 106
d 0.291556 2 3 cbr 1000 ------- 0 0.0 3.0 106 106
r 0.291596 0 2 cbr 1000 ------- 0 0.0 3.0 107 107
+ 0.291596 2 3 cbr 1000 ------- 0 0.0 3.0 107 107
d 0.291596 2 3 cbr 1000 ------- 0 0.0 3.0 107 107
r 0.291636 0 2 cbr 1000 ------- 0 0.0 3.0 108 108
+ 0.291636 2 3 cbr 1000 ------- 0 0.0 3.0 108 108
d 0.291636 2 3 cbr 1000 ------- 0 0.0 3.0 108 108
r 0.291676 0 2 cbr 1000 ------- 0 0.0 3.0 109 109
+ 0.291676 2 3 cbr 1000 ------- 0 0.0 3.0 109 109
d 0.291676 2 3 cbr 1000 ------- 0 0.0 3.0 109 109
- 0.29304 2 3 cbr 1000 ------- 0 0.0 3.0 24 24
+ 0.29375 0 2 cbr 210 ------- 0 0.0 3.0 110 110
- 0.29375 0 2 cbr 210 ------- 0 0.0 3.0 110 110
r 0.294758 0 2 cbr 210 ------- 0 0.0 3.0 110 110
+ 0.294758 2 3 cbr 210 ------- 0 0.0 3.0 110 110
+ 0.2975 0 2 cbr 210 ------- 0 0.0 3.0 111 111
- 0.2975 0 2 cbr 210 ------- 0 0.0 3.0 111 111
r 0.298508 0 2 cbr 210 ------- 0 0.0 3.0 111 111
+ 0.298508 2 3 cbr 210 ------- 0 0.0 3.0 111 111
d 0.298508 2 3 cbr 210 ------- 0 0.0 3.0 111 111
- 0.30104 2 3 cbr 1000 ------- 0 0.0 3.0 25 25
+ 0.30125 0 2 cbr 210 ------- 0 0.0 3.0 112 112
- 0.30125 0 2 cbr 210 ------- 0 0.0 3.0 112 112
r 0.302258 0 2 cbr 210 ------- 0 0.0 3.0 112 112
+ 0.302258 2 3 cbr 210 ------- 0 0.0 3.0 112 112
+ 0.302381 0 2 cbr 1000 ------- 0 0.0 3.0 113 113
- 0.302381 0 2 cbr 1000 ------- 0 0.0 3.0 113 113
+ 0.302381 0 2 cbr 1000 ------- 0 0.0 3.0 114 114
+ 0.302381 0 2 cbr 1000 ------- 0 0.0 3.0 115 115
+ 0.302381 0 2 cbr 1000 ------- 0 0.0 3.0 116 116
+ 0.302381 0 2 cbr 1000 ------- 0 0.0 3.0 117 117
- 0.302421 0 2 cbr 1000 ------- 0 0.0 3.0 114 114
- 0.302461 0 2 cbr 1000 ------- 0 0.0 3.0 115 115
- 0.302501 0 2 cbr 1000 ------- 0 0.0 3.0 116 116
- 0.302541 0 2 cbr 1000 ------- 0 0.0 3.0 117 117
r 0.303421 0 2 cbr 1000 ------- 0 0.0 3.0 113 113
+ 0.303421 2 3 cbr 1000 ------- 0 0.0 3.0 113 113
d 0.303421 2 3 cbr 1000 ------- 0 0.0 3.0 113 113
r 0.303461 0 2 cbr 1000 ------- 0 0.0 3.0 114 114
+ 0.303461 2 3 cbr 1000 ------- 0 0.0 3.0 114 114
d 0.303461 2 3 cbr 1000 ------- 0 0.0 3.0 114 114
r 0.303501 0 2 cbr 1000 ------- 0 0.0 3.0 115 115
+ 0.303501 2 3 cbr 1000 ------- 0 0.0 3.0 115 115
d 0.303501 2 3 cbr 1000 ------- 0 0.0 3.0 115 115
r 0.303541 0 2 cbr 1000 ------- 0 0.0 3.0 116 116
+ 0.303541 2 3 cbr 1000 ------- 0 0.0 3.0 116 116
d 0.303541 2 3 cbr 1000 ------- 0 0.0 3.0 116 116
r 0.303581 0 2 cbr 1000 ------- 0 0.0 3.0 117 117
+ 0.303581 2 3 cbr 1000 ------- 0 0.0 3.0 117 117
d 0.303581 2 3 cbr 1000 ------- 0 0.0 3.0 117 117
+ 0.305 0 2 cbr 210 ------- 0 0.0 3.0 118 118
- 0.305 0 2 cbr 210 ------- 0 0.0 3.0 118 118
r 0.306008 0 2 cbr 210 ------- 0 0.0 3.0 118 118
+ 0.306008 2 3 cbr 210 ------- 0 0.0 3.0 118 118
d 0.306008 2 3 cbr 210 ------- 0 0.0 3.0 118 118
+ 0.30875 0 2 cbr 210 ------- 0 0.0 3.0 119 119
- 0.30875 0 2 cbr 210 ------- 0 0.0 3.0 119 119
- 0.30904 2 3 cbr 1000 ------- 0 0.0 3.0 26 26
r 0.309758 0 2 cbr 210 ------- 0 0.0 3.0 119 119
+ 0.309758 2 3 cbr 210 ------- 0 0.0 3.0 119 119
+ 0.3125 0 2 cbr 210 ------- 0 0.0 3.0 120 120
- 0.3125 0 2 cbr 210 ------- 0 0.0 3.0 120 120
r 0.313508 0 2 cbr 210 ------- 0 0.0 3.0 120 120
+ 0.313508 2 3 cbr 210 ------- 0 0.0 3.0 120 120
d 0.313508 2 3 cbr 210 ------- 0 0.0 3.0 120 120
+ 0.314286 0 2 cbr 1000 ------- 0 0.0 3.0 121 121
- 0.314286 0 2 cbr 1000 ------- 0 0.0 3.0 121 121
+ 0.314286 0 2 cbr 1000 ------- 0 0.0 3.0 122 122
+ 0.314286 0 2 cbr 1000 ------- 0 0.0 3.0 123 123
+ 0.314286 0 2 cbr 1000 ------- 0 0.0 3.0 124 124
+ 0.314286 0 2 cbr 1000 ------- 0 0.0 3.0 125 125
- 0.314326 0 2 cbr 1000 ------- 0 0.0 3.0 122 122
- 0.314366 0 2 cbr 1000 ------- 0 0.0 3.0 123 123
- 0.314406 0 2 cbr 1000 ------- 0 0.0 3.0 124 124
- 0.314446 0 2 cbr 1000 ------- 0 0.0 3.0 125 125
r 0.315326 0 2 cbr 1000 ------- 0 0.0 3.0 121 121
+ 0.315326 2 3 cbr 1000 ------- 0 0.0 3.0 121 121
d 0.315326 2 3 cbr 1000 ------- 0 0.0 3.0 121 121
r 0.315366 0 2 cbr 1000 ------- 0 0.0 3.0 122 122
+ 0.315366 2 3 cbr 1000 ------- 0 0.0 3.0 122 122
d 0.315366 2 3 cbr 1000 ------- 0 0.0 3.0 122 122
r 0.315406 0 2 cbr 1000 ------- 0 0.0 3.0 123 123
+ 0.315406 2 3 cbr 1000 ------- 0 0.0 3.0 123 123
d 0.315406 2 3 cbr 1000 ------- 0 0.0 3.0 123 123
r 0.315446 0 2 cbr 1000 ------- 0 0.0 3.0 124 124
+ 0.315446 2 3 cbr 1000 ------- 0 0.0 3.0 124 124
d 0.315446 2 3 cbr 1000 ------- 0 0.0 3.0 124 124
r 0.315486 0 2 cbr 1000 ------- 0 0.0 3.0 125 125
+ 0.315486 2 3 cbr 1000 ------- 0 0.0 3.0 125 125
d 0.315486 2 3 cbr 1000 ------- 0 0.0 3.0 125 125
+ 0.31625 0 2 cbr 210 ------- 0 0.0 3.0 126 126
- 0.31625 0 2 cbr 210 ------- 0 0.0 3.0 126 126
- 0.31704 2 3 cbr 1000 ------- 0 0.0 3.0 27 27
r 0.317258 0 2 cbr 210 ------- 0 0.0 3.0 126 126
+ 0.317258 2 3 cbr 210 ------- 0 0.0 3.0 126 126
+ 0.32 0 2 cbr 210 ------- 0 0.0 3.0 127 127
- 0.32 0 2 cbr 210 ------- 0 0.0 3.0 127 127
r 0.321008 0 2 cbr 210 ------- 0 0.0 3.0 127 127
+ 0.321008 2 3 cbr 210 ------- 0 0.0 3.0 127 127
d 0.321008 2 3 cbr 210 ------- 0 0.0 3.0 127 127
+ 0.32375 0 2 cbr 210 ------- 0 0.0 3.0 128 128
- 0.32375 0 2 cbr 210 ------- 0 0.0 3.0 128 128
r 0.324758 0 2 cbr 210 ------- 0 0.0 3.0 128 128
+ 0.324758 2 3 cbr 210 ------- 0 0.0 3.0 128 128
d 0.324758 2 3 cbr 210 ------- 0 0.0 3.0 128 128
- 0.32504 2 3 cbr 1000 ------- 0 0.0 3.0 28 28
+ 0.32619 0 2 cbr 1000 ------- 0 0.0 3.0 129 129
- 0.32619 0 2 cbr 1000 ------- 0 0.0 3.0 129 129
+ 0.32619 0 2 cbr 1000 ------- 0 0.0 3.0 130 130
+ 0.32619 0 2 cbr 1000 ------- 0 0.0 3.0 131 131
+ 0.32619 0 2 cbr 1000 ------- 0 0.0 3.0 132 132
+ 0.32619 0 2 cbr 1000 ------- 0 0.0 3.0 133 133
- 0.32623 0 2 cbr 1000 ------- 0 0.0 3.0 130 130
- 0.32627 0 2 cbr 1000 ------- 0 0.0 3.0 131 131
- 0.32631 0 2 cbr 1000 ------- 0 0.0 3.0 132 132
- 0.32635 0 2 cbr 1000 ------- 0 0.0 3.0 133 133
r 0.32723 0 2 cbr 1000 ------- 0 0.0 3.0 129 129
+ 0.32723 2 3 cbr 1000 ------- 0 0.0 3.0 129 129
r 0.32727 0 2 cbr 1000 ------- 0 0.0 3.0 130 130
+ 0.32727 2 3 cbr 1000 ------- 0 0.0 3.0 130 130
d 0.32727 2 3 cbr 1000 ------- 0 0.0 3.0 130 130
r 0.32731 0 2 cbr 1000 ------- 0 0.0 3.0 131 131
+ 0.32731 2 3 cbr 1000 ------- 0 0.0 3.0 131 131
d 0.32731 2 3 cbr 1000 ------- 0 0.0 3.0 131 131
r 0.32735 0 2 cbr 1000 ------- 0 0.0 3.0 132 132
+ 0.32735 2 3 cbr 1000 ------- 0 0.0 3.0 132 132
d 0.32735 2 3 cbr 1000 ------- 0 0.0 3.0 132 132
r 0.32739 0 2 cbr 1000 ------- 0 0.0 3.0 133 133
+ 0.32739 2 3 cbr 1000 ------- 0 0.0 3.0 133 133
d 0.32739 2 3 cbr 1000 ------- 0 0.0 3.0 133 133
+ 0.3275 0 2 cbr 210 ------- 0 0.0 3.0 134 134
- 0.3275 0 2 cbr 210 ------- 0 0.0 3.0 134 134
r 0.328508 0 2 cbr 210 ------- 0 0.0 3.0 134 134
+ 0.328508 2 3 cbr 210 ------- 0 0.0 3.0 134 134
d 0.328508 2 3 cbr 210 ------- 0 0.0 3.0 134 134
+ 0.33125 0 2 cbr 210 ------- 0 0.0 3.0 135 135
- 0.33125 0 2 cbr 210 ------- 0 0.0 3.0 135 135