V -t * -v 1.0a5 -a 0
A -t * -n 1 -p 0 -o 0x7fffffff -c 30 -a 1
A -t * -h 1 -m 1073741823 -s 0
n -t * -a 0 -s 0 -S UP -v circle -c black -i black
n -t * -a 1 -s 1 -S UP -v circle -c black -i black
n -t * -a 2 -s 2 -S UP -v circle -c black -i black
n -t * -a 3 -s 3 -S UP -v circle -c black -i black
l -t * -s 0 -d 2 -S UP -r 200000000 -D 0.001 -c black
l -t * -s 1 -d 2 -S UP -r 100000000 -D 0.001 -c black
l -t * -s 2 -d 3 -S UP -r 1000000 -D 10 -c black
+ -t 0.1 -s 0 -d 2 -p cbr -e 1000 -c 0 -i 0 -a 0 -x {0.0 3.0 0 ------- null}
- -t 0.1 -s 0 -d 2 -p cbr -e 1000 -c 0 -i 0 -a 0 -x {0.0 3.0 0 ------- null}
h -t 0.1 -s 0 -d 2 -p cbr -e 1000 -c 0 -i 0 -a 0 -x {0.0 3.0 -1 ------- null}
+ -t 0.1 -s 0 -d 2 -p cbr -e 1000 -c 0 -i 1 -a 0 -x {0.0 3.0 1 ------- null}
+ -t 0.1 -s 0 -d 2 -p cbr -e 1000 -c 0 -i 2 -a 0 -x {0.0 3.0 2 ------- null}
+ -t 0.1 -s 0 -d 2 -p cbr -e 1000 -c 0 -i 3 -a 0 -x {0.0 3.0 3 ------- null}
+ -t 0.1 -s 0 -d 2 -p cbr -e 1000 -c 0 -i 4 -a 0 -x {0.0 3.0 4 ------- null}
- -t 0.10004 -s 0 -d 2 -p cbr -e 1000 -c 0 -i 1 -a 0 -x {0.0 3.0 1 ------- null}
h -t 0.10004 -s 0 -d 2 -p cbr -e 1000 -c 0 -i 1 -a 0 -x {0.0 3.0 -1 ------- null}
- -t 0.10008 -s 0 -d 2 -p cbr -e 1000 -c 0 -i 2 -a 0 -x {0.0 3.0 2 ------- null}
h -t 0.10008 -s 0 -d 2 -p cbr -e 1000 -c 0 -i 2 -a 0 -x {0.0 3.0 -1 ------- null}
- -t 0.10012 -s 0 -d 2 -p cbr -e 1000 -c 0 -i 3 -a 0 -x {0.0 3.0 3 ------- null}
h -t 0.10012 -s 0 -d 2 -p cbr -e 1000 -c 0 -i 3 -a 0 -x {0.0 3.0 -1 ------- null}
- -t 0.10016 -s 0 -d 2 -p cbr -e 1000 -c 0 -i 4 -a 0 -x {0.0 3.0 4 ------- null}
h -t 0.10016 -s 0 -d 2 -p cbr -e 1000 -c 0 -i 4 -a 0 -x {0.0 3.0 -1 ------- null}
r -t 0.10104 -s 0 -d 2 -p cbr -e 1000 -c 0 -i 0 -a 0 -x {0.0 3.0 0 ------- null}
+ -t 0.10104 -s 2 -d 3 -p cbr -e 1000 -c 0 -i 0 -a 0 -x {0.0 3.0 0 ------- null}
- -t 0.10104 -s 2 -d 3 -p cbr -e 1000 -c 0 -i 0 -a 0 -x {0.0 3.0 0 ------- null}
h -t 0.10104 -s 2 -d 3 -p cbr -e 1000 -c 0 -i 0 -a 0 -x {0.0 3.0 -1 ------- null}
r -t 0.10108 -s 0 -d 2 -p cbr -e 1000 -c 0 -i 1 -a 0 -x {0.0 3.0 1 ------- null}
+ -t 0.10108 -s 2 -d 3 -p cbr -e 1000 -c 0 -i 1 -a 0 -x {0.0 3.0 1 ------- null}
r -t 0.10112 -s 0 -d 2 -p cbr -e 1000 -c 0 -i 2 -a 0 -x {0.0 3.0 2 ------- null}
+ -t 0.10112 -s 2 -d 3 -p cbr -e 1000 -c 0 -i 2 -a 0 -x {0.0 3.0 2 ------- null}
r -t 0.10116 -s 0 -d 2 -p cbr -e 1000 -c 0 -i 3 -a 0 -x {0.0 3.0 3 ------- null}
+ -t 0.10116 -s 2 -d 3 -p cbr -e 1000 -c 0 -i 3 -a 0 -x {0.0 3.0 3 ------- null}
r -t 0.1012 -s 0 -d 2 -p cbr -e 1000 -c 0 -i 4 -a 0 -x {0.0 3.0 4 ------- null}
+ -t 0.1012 -s 2 -d 3 -p cbr -e 1000 -c 0 -i 4 -a 0 -x {0.0 3.0 4 ------- null}
- -t 0.10904 -s 2 -d 3 -p cbr -e 1000 -c 0 -i 1 -a 0 -x {0.0 3.0 1 ------- null}
h -t 0.10904 -s 2 -d 3 -p cbr -e 1000 -c 0 -i 1 -a 0 -x {0.0 3.0 -1 ------- null}
+ -t 0.111904761904762 -s 0 -d 2 -p cbr -e 1000 -c 0 -i 5 -a 0 -x {0.0 3.0 5 ------- null}
- -t 0.111904761904762 -s 0 -d 2 -p cbr -e 1000 -c 0 -i 5 -a 0 -x {0.0 3.0 5 ------- null}
h -t 0.111904761904762 -s 0 -d 2 -p cbr -e 1000 -c 0 -i 5 -a 0 -x {0.0 3.0 -1 ------- null}
+ -t 0.111904761904762 -s 0 -d 2 -p cbr -e 1000 -c 0 -i 6 -a 0 -x {0.0 3.0 6 ------- null}
+ -t 0.111904761904762 -s 0 -d 2 -p cbr -e 1000 -c 0 -i 7 -a 0 -x {0.0 3.0 7 ------- null}
+ -t 0.111904761904762 -s 0 -d 2 -p cbr -e 1000 -c 0 -i 8 -a 0 -x {0.0 3.0 8 ------- null}
+ -t 0.111904761904762 -s 0 -d 2 -p cbr -e 1000 -c 0 -i 9 -a 0 -x {0.0 3.0 9 ------- null}
- -t 0.111944761904762 -s 0 -d 2 -p cbr -e 1000 -c 0 -i 6 -a 0 -x {0.0 3.0 6 ------- null}
h -t 0.111944761904762 -s 0 -d 2 -p cbr -e 1000 -c 0 -i 6 -a 0 -x {0.0 3.0 -1 ------- null}
- -t 0.111984761904762 -s 0 -d 2 -p cbr -e 1000 -c 0 -i 7 -a 0 -x {0.0 3.0 7 ------- null}
h -t 0.111984761904762 -s 0 -d 2 -p cbr -e 1000 -c 0 -i 7 -a 0 -x {0.0 3.0 -1 ------- null}
- -t 0.112024761904762 -s 0 -d 2 -p cbr -e 1000 -c 0 -i 8 -a 0 -x {0.0 3.0 8 ------- null}
h -t 0.112024761904762 -s 0 -d 2 -p cbr -e 1000 -c 0 -i 8 -a 0 -x {0.0 3.0 -1 ------- null}
- -t 0.112064761904762 -s 0 -d 2 -p cbr -e 1000 -c 0 -i 9 -a 0 -x {0.0 3.0 9 ------- null}
h -t 0.112064761904762 -s 0 -d 2 -p cbr -e 1000 -c 0 -i 9 -a 0 -x {0.0 3.0 -1 ------- null}
r -t 0.112944761904762 -s 0 -d 2 -p cbr -e 1000 -c 0 -i 5 -a 0 -x {0.0 3.0 5 ------- null}
+ -t 0.112944761904762 -s 2 -d 3 -p cbr -e 1000 -c 0 -i 5 -a 0 -x {0.0 3.0 5 ------- null}
r -t 0.112984761904762 -s 0 -d 2 -p cbr -e 1000 -c 0 -i 6 -a 0 -x {0.0 3.0 6 ------- null}
+ -t 0.112984761904762 -s 2 -d 3 -p cbr -e 1000 -c 0 -i 6 -a 0 -x {0.0 3.0 6 ------- null}
r -t 0.113024761904762 -s 0 -d 2 -p cbr -e 1000 -c 0 -i 7 -a 0 -x {0.0 3.0 7 ------- null}
+ -t 0.113024761904762 -s 2 -d 3 -p cbr -e 1000 -c 0 -i 7 -a 0 -x {0.0 3.0 7 ------- null}
r -t 0.113064761904762 -s 0 -d 2 -p cbr -e 1000 -c 0 -i 8 -a 0 -x {0.0 3.0 8 ------- null}
+ -t 0.113064761904762 -s 2 -d 3 -p cbr -e 1000 -c 0 -i 8 -a 0 -x {0.0 3.0 8 ------- null}
r -t 0.113104761904762 -s 0 -d 2 -p cbr -e 1000 -c 0 -i 9 -a 0 -x {0.0 3.0 9 ------- null}
+ -t 0.113104761904762 -s 2 -d 3 -p cbr -e 1000 -c 0 -i 9 -a 0 -x {0.0 3.0 9 ------- null}
- -t 0.11704 -s 2 -d 3 -p cbr -e 1000 -c 0 -i 2 -a 0 -x {0.0 3.0 2 ------- null}
h -t 0.11704 -s 2 -d 3 -p cbr -e 1000 -c 0 -i 2 -a 0 -x {0.0 3.0 -1 ------- null}
+ -t 0.123809523809524 -s 0 -d 2 -p cbr -e 1000 -c 0 -i 10 -a 0 -x {0.0 3.0 10 ------- null}
- -t 0.123809523809524 -s 0 -d 2 -p cbr -e 1000 -c 0 -i 10 -a 0 -x {0.0 3.0 10 ------- null}
h -t 0.123809523809524 -s 0 -d 2 -p cbr -e 1000 -c 0 -i 10 -a 0 -x {0.0 3.0 -1 ------- null}
+ -t 0.123809523809524 -s 0 -d 2 -p cbr -e 1000 -c 0 -i 11 -a 0 -x {0.0 3.0 11 ------- null}
+ -t 0.123809523809524 -s 0 -d 2 -p cbr -e 1000 -c 0 -i 12 -a 0 -x {0.0 3.0 12 ------- null}
+ -t 0.123809523809524 -s 0 -d 2 -p cbr -e 1000 -c 0 -i 13 -a 0 -x {0.0 3.0 13 ------- null}
+ -t 0.123809523809524 -s 0 -d 2 -p cbr -e 1000 -c 0 -i 14 -a 0 -x {0.0 3.0 14 ------- null}
- -t 0.123849523809524 -s 0 -d 2 -p cbr -e 1000 -c 0 -i 11 -a 0 -x {0.0 3.0 11 ------- null}
h -t 0.123849523809524 -s 0 -d 2 -p cbr -e 1000 -c 0 -i 11 -a 0 -x {0.0 3.0 -1 ------- null}
- -t 0.123889523809524 -s 0 -d 2 -p cbr -e 1000 -c 0 -i 12 -a 0 -x {0.0 3.0 12 ------- null}
h -t 0.123889523809524 -s 0 -d 2 -p cbr -e 1000 -c 0 -i 12 -a 0 -x {0.0 3.0 -1 ------- null}
- -t 0.123929523809524 -s 0 -d 2 -p cbr -e 1000 -c 0 -i 13 -a 0 -x {0.0 3.0 13 ------- null}
h -t 0.123929523809524 -s 0 -d 2 -p cbr -e 1000 -c 0 -i 13 -a 0 -x {0.0 3.0 -1 ------- null}
- -t 0.123969523809524 -s 0 -d 2 -p cbr -e 1000 -c 0 -i 14 -a 0 -x {0.0 3.0 14 ------- null}
h -t 0.123969523809524 -s 0 -d 2 -p cbr -e 1000 -c 0 -i 14 -a 0 -x {0.0 3.0 -1 ------- null}
r -t 0.124849523809524 -s 0 -d 2 -p cbr -e 1000 -c 0 -i 10 -a 0 -x {0.0 3.0 10 ------- null}
+ -t 0.124849523809524 -s 2 -d 3 -p cbr -e 1000 -c 0 -i 10 -a 0 -x {0.0 3.0 10 ------- null}
r -t 0.124889523809524 -s 0 -d 2 -p cbr -e 1000 -c 0 -i 11 -a 0 -x {0.0 3.0 11 ------- null}
+ -t 0.124889523809524 -s 2 -d 3 -p cbr -e 1000 -c 0 -i 11 -a 0 -x {0.0 3.0 11 ------- null}
r -t 0.124929523809524 -s 0 -d 2 -p cbr -e 1000 -c 0 -i 12 -a 0 -x {0.0 3.0 12 ------- null}
+ -t 0.124929523809524 -s 2 -d 3 -p cbr -e 1000 -c 0 -i 12 -a 0 -x {0.0 3.0 12 ------- null}
r -t 0.124969523809524 -s 0 -d 2 -p cbr -e 1000 -c 0 -i 13 -a 0 -x {0.0 3.0 13 ------- null}
+ -t 0.124969523809524 -s 2 -d 3 -p cbr -e 1000 -c 0 -i 13 -a 0 -x {0.0 3.0 13 ------- null}
r -t 0.125009523809524 -s 0 -d 2 -p cbr -e 1000 -c 0 -i 14 -a 0 -x {0.0 3.0 14 ------- null}
+ -t 0.125009523809524 -s 2 -d 3 -p cbr -e 1000 -c 0 -i 14 -a 0 -x {0.0 3.0 14 ------- null}
- -t 0.12504 -s 2 -d 3 -p cbr -e 1000 -c 0 -i 3 -a 0 -x {0.0 3.0 3 ------- null}
h -t 0.12504 -s 2 -d 3 -p cbr -e 1000 -c 0 -i 3 -a 0 -x {0.0 3.0 -1 ------- null}
- -t 0.13304 -s 2 -d 3 -p cbr -e 1000 -c 0 -i 4 -a 0 -x {0.0 3.0 4 ------- null}
h -t 0.13304 -s 2 -d 3 -p cbr -e 1000 -c 0 -i 4 -a 0 -x {0.0 3.0 -1 ------- null}
+ -t 0.135714285714286 -s 0 -d 2 -p cbr -e 1000 -c 0 -i 15 -a 0 -x {0.0 3.0 15 ------- null}
- -t 0.135714285714286 -s 0 -d 2 -p cbr -e 1000 -c 0 -i 15 -a 0 -x {0.0 3.0 15 ------- null}
h -t 0.135714285714286 -s 0 -d 2 -p cbr -e 1000 -c 0 -i 15 -a 0 -x {0.0 3.0 -1 ------- null}
+ -t 0.135714285714286 -s 0 -d 2 -p cbr -e 1000 -c 0 -i 16 -a 0 -x {0.0 3.0 16 ------- null}
+ -t 0.135714285714286 -s 0 -d 2 -p cbr -e 1000 -c 0 -i 17 -a 0 -x {0.0 3.0 17 ------- null}
+ -t 0.135714285714286 -s 0 -d 2 -p cbr -e 1000 -c 0 -i 18 -a 0 -x {0.0 3.0 18 ------- null}
+ -t 0.135714285714286 -s 0 -d 2 -p cbr -e 1000 -c 0 -i 19 -a 0 -x {0.0 3.0 19 ------- null}
- -t 0.135754285714286 -s 0 -d 2 -p cbr -e 1000 -c 0 -i 16 -a 0 -x {0.0 3.0 16 ------- null}
h -t 0.135754285714286 -s 0 -d 2 -p cbr -e 1000 -c 0 -i 16 -a 0 -x {0.0 3.0 -1 ------- null}
- -t 0.135794285714286 -s 0 -d 2 -p cbr -e 1000 -c 0 -i 17 -a 0 -x {0.0 3.0 17 ------- null}
h -t 0.135794285714286 -s 0 -d 2 -p cbr -e 1000 -c 0 -i 17 -a 0 -x {0.0 3.0 -1 ------- null}
- -t 0.135834285714286 -s 0 -d 2 -p cbr -e 1000 -c 0 -i 18 -a 0 -x {0.0 3.0 18 ------- null}
h -t 0.135834285714286 -s 0 -d 2 -p cbr -e 1000 -c 0 -i 18 -a 0 -x {0.0 3.0 -1 ------- null}
- -t 0.135874285714286 -s 0 -d 2 -p cbr -e 1000 -c 0 -i 19 -a 0 -x {0.0 3.0 19 ------- null}
h -t 0.135874285714286 -s 0 -d 2 -p cbr -e 1000 -c 0 -i 19 -a 0 -x {0.0 3.0 -1 ------- null}
r -t 0.136754285714286 -s 0 -d 2 -p cbr -e 1000 -c 0 -i 15 -a 0 -x {0.0 3.0 15 ------- null}
+ -t 0.136754285714286 -s 2 -d 3 -p cbr -e 1000 -c 0 -i 15 -a 0 -x {0.0 3.0 15 ------- null}
r -t 0.136794285714286 -s 0 -d 2 -p cbr -e 1000 -c 0 -i 16 -a 0 -x {0.0 3.0 16 ------- null}
+ -t 0.136794285714286 -s 2 -d 3 -p cbr -e 1000 -c 0 -i 16 -a 0 -x {0.0 3.0 16 ------- null}
r -t 0.136834285714286 -s 0 -d 2 -p cbr -e 1000 -c 0 -i 17 -a 0 -x {0.0 3.0 17 ------- null}
+ -t 0.136834285714286 -s 2 -d 3 -p cbr -e 1000 -c 0 -i 17 -a 0 -x {0.0 3.0 17 ------- null}
r -t 0.136874285714286 -s 0 -d 2 -p cbr -e 1000 -c 0 -i 18 -a 0 -x {0.0 3.0 18 ------- null}
+ -t 0.136874285714286 -s 2 -d 3 -p cbr -e 1000 -c 0 -i 18 -a 0 -x {0.0 3.0 18 ------- null}
r -t 0.136914285714286 -s 0 -d 2 -p cbr -e 1000 -c 0 -i 19 -a 0 -x {0.0 3.0 19 ------- null}
+ -t 0.136914285714286 -s 2 -d 3 -p cbr -e 1000 -c 0 -i 19 -a 0 -x {0.0 3.0 19 ------- null}
- -t 0.14104 -s 2 -d 3 -p cbr -e 1000 -c 0 -i 5 -a 0 -x {0.0 3.0 5 ------- null}
h -t 0.14104 -s 2 -d 3 -p cbr -e 1000 -c 0 -i 5 -a 0 -x {0.0 3.0 -1 ------- null}
+ -t 0.147619047619048 -s 0 -d 2 -p cbr -e 1000 -c 0 -i 20 -a 0 -x {0.0 3.0 20 ------- null}
- -t 0.147619047619048 -s 0 -d 2 -p cbr -e 1000 -c 0 -i 20 -a 0 -x {0.0 3.0 20 ------- null}
h -t 0.147619047619048 -s 0 -d 2 -p cbr -e 1000 -c 0 -i 20 -a 0 -x {0.0 3.0 -1 ------- null}
+ -t 0.147619047619048 -s 0 -d 2 -p cbr -e 1000 -c 0 -i 21 -a 0 -x {0.0 3.0 21 ------- null}
+ -t 0.147619047619048 -s 0 -d 2 -p cbr -e 1000 -c 0 -i 22 -a 0 -x {0.0 3.0 22 ------- null}
+ -t 0.147619047619048 -s 0 -d 2 -p cbr -e 1000 -c 0 -i 23 -a 0 -x {0.0 3.0 23 ------- null}
+ -t 0.147619047619048 -s 0 -d 2 -p cbr -e 1000 -c 0 -i 24 -a 0 -x {0.0 3.0 24 ------- null}
- -t 0.147659047619048 -s 0 -d 2 -p cbr -e 1000 -c 0 -i 21 -a 0 -x {0.0 3.0 21 ------- null}
h -t 0.147659047619048 -s 0 -d 2 -p cbr -e 1000 -c 0 -i 21 -a 0 -x {0.0 3.0 -1 ------- null}
- -t 0.147699047619048 -s 0 -d 2 -p cbr -e 1000 -c 0 -i 22 -a 0 -x {0.0 3.0 22 ------- null}
h -t 0.147699047619048 -s 0 -d 2 -p cbr -e 1000 -c 0 -i 22 -a 0 -x {0.0 3.0 -1 ------- null}
- -t 0.147739047619048 -s 0 -d 2 -p cbr -e 1000 -c 0 -i 23 -a 0 -x {0.0 3.0 23 ------- null}
h -t 0.147739047619048 -s 0 -d 2 -p cbr -e 1000 -c 0 -i 23 -a 0 -x {0.0 3.0 -1 ------- null}
- -t 0.147779047619048 -s 0 -d 2 -p cbr -e 1000 -c 0 -i 24 -a 0 -x {0.0 3.0 24 ------- null}
h -t 0.147779047619048 -s 0 -d 2 -p cbr -e 1000 -c 0 -i 24 -a 0 -x {0.0 3.0 -1 ------- null}
r -t 0.148659047619048 -s 0 -d 2 -p cbr -e 1000 -c 0 -i 20 -a 0 -x {0.0 3.0 20 ------- null}
+ -t 0.148659047619048 -s 2 -d 3 -p cbr -e 1000 -c 0 -i 20 -a 0 -x {0.0 3.0 20 ------- null}
r -t 0.148699047619048 -s 0 -d 2 -p cbr -e 1000 -c 0 -i 21 -a 0 -x {0.0 3.0 21 ------- null}
+ -t 0.148699047619048 -s 2 -d 3 -p cbr -e 1000 -c 0 -i 21 -a 0 -x {0.0 3.0 21 ------- null}
r -t 0.148739047619048 -s 0 -d 2 -p cbr -e 1000 -c 0 -i 22 -a 0 -x {0.0 3.0 22 ------- null}
+ -t 0.148739047619048 -s 2 -d 3 -p cbr -e 1000 -c 0 -i 22 -a 0 -x {0.0 3.0 22 ------- null}
r -t 0.148779047619048 -s 0 -d 2 -p cbr -e 1000 -c 0 -i 23 -a 0 -x {0.0 3.0 23 ------- null}
+ -t 0.148779047619048 -s 2 -d 3 -p cbr -e 1000 -c 0 -i 23 -a 0 -x {0.0 3.0 23 ------- null}
r -t 0.148819047619048 -s 0 -d 2 -p cbr -e 1000 -c 0 -i 24 -a 0 -x {0.0 3.0 24 ------- null}
+ -t 0.148819047619048 -s 2 -d 3 -p cbr -e 1000 -c 0 -i 24 -a 0 -x {0.0 3.0 24 ------- null}
- -t 0.14904 -s 2 -d 3 -p cbr -e 1000 -c 0 -i 6 -a 0 -x {0.0 3.0 6 ------- null}
h -t 0.14904 -s 2 -d 3 -p cbr -e 1000 -c 0 -i 6 -a 0 -x {0.0 3.0 -1 ------- null}
- -t 0.15704 -s 2 -d 3 -p cbr -e 1000 -c 0 -i 7 -a 0 -x {0.0 3.0 7 ------- null}
h -t 0.15704 -s 2 -d 3 -p cbr -e 1000 -c 0 -i 7 -a 0 -x {0.0 3.0 -1 ------- null}
+ -t 0.15952380952381 -s 0 -d 2 -p cbr -e 1000 -c 0 -i 25 -a 0 -x {0.0 3.0 25 ------- null}
- -t 0.15952380952381 -s 0 -d 2 -p cbr -e 1000 -c 0 -i 25 -a 0 -x {0.0 3.0 25 ------- null}
h -t 0.15952380952381 -s 0 -d 2 -p cbr -e 1000 -c 0 -i 25 -a 0 -x {0.0 3.0 -1 ------- null}
+ -t 0.15952380952381 -s 0 -d 2 -p cbr -e 1000 -c 0 -i 26 -a 0 -x {0.0 3.0 26 ------- null}
+ -t 0.15952380952381 -s 0 -d 2 -p cbr -e 1000 -c 0 -i 27 -a 0 -x {0.0 3.0 27 ------- null}
+ -t 0.15952380952381 -s 0 -d 2 -p cbr -e 1000 -c 0 -i 28 -a 0 -x {0.0 3.0 28 ------- null}
+ -t 0.15952380952381 -s 0 -d 2 -p cbr -e 1000 -c 0 -i 29 -a 0 -x {0.0 3.0 29 ------- null}
- -t 0.15956380952381 -s 0 -d 2 -p cbr -e 1000 -c 0 -i 26 -a 0 -x {0.0 3.0 26 ------- null}
h -t 0.15956380952381 -s 0 -d 2 -p cbr -e 1000 -c 0 -i 26 -a 0 -x {0.0 3.0 -1 ------- null}
- -t 0.15960380952381 -s 0 -d 2 -p cbr -e 1000 -c 0 -i 27 -a 0 -x {0.0 3.0 27 ------- null}
h -t 0.15960380952381 -s 0 -d 2 -p cbr -e 1000 -c 0 -i 27 -a 0 -x {0.0 3.0 -1 ------- null}
- -t 0.15964380952381 -s 0 -d 2 -p cbr -e 1000 -c 0 -i 28 -a 0 -x {0.0 3.0 28 ------- null}
h -t 0.15964380952381 -s 0 -d 2 -p cbr -e 1000 -c 0 -i 28 -a 0 -x {0.0 3.0 -1 ------- null}
- -t 0.15968380952381 -s 0 -d 2 -p cbr -e 1000 -c 0 -i 29 -a 0 -x {0.0 3.0 29 ------- null}
h -t 0.15968380952381 -s 0 -d 2 -p cbr -e 1000 -c 0 -i 29 -a 0 -x {0.0 3.0 -1 ------- null}
r -t 0.16056380952381 -s 0 -d 2 -p cbr -e 1000 -c 0 -i 25 -a 0 -x {0.0 3.0 25 ------- null}
+ -t 0.16056380952381 -s 2 -d 3 -p cbr -e 1000 -c 0 -i 25 -a 0 -x {0.0 3.0 25 ------- null}
r -t 0.16060380952381 -s 0 -d 2 -p cbr -e 1000 -c 0 -i 26 -a 0 -x {0.0 3.0 26 ------- null}
+ -t 0.16060380952381 -s 2 -d 3 -p cbr -e 1000 -c 0 -i 26 -a 0 -x {0.0 3.0 26 ------- null}
r -t 0.16064380952381 -s 0 -d 2 -p cbr -e 1000 -c 0 -i 27 -a 0 -x {0.0 3.0 27 ------- null}
+ -t 0.16064380952381 -s 2 -d 3 -p cbr -e 1000 -c 0 -i 27 -a 0 -x {0.0 3.0 27 ------- null}
r -t 0.16068380952381 -s 0 -d 2 -p cbr -e 1000 -c 0 -i 28 -a 0 -x {0.0 3.0 28 ------- null}
+ -t 0.16068380952381 -s 2 -d 3 -p cbr -e 1000 -c 0 -i 28 -a 0 -x {0.0 3.0 28 ------- null}
r -t 0.16072380952381 -s 0 -d 2 -p cbr -e 1000 -c 0 -i 29 -a 0 -x {0.0 3.0 29 ------- null}
+ -t 0.16072380952381 -s 2 -d 3 -p cbr -e 1000 -c 0 -i 29 -a 0 -x {0.0 3.0 29 ------- null}
- -t 0.16504 -s 2 -d 3 -p cbr -e 1000 -c 0 -i 8 -a 0 -x {0.0 3.0 8 ------- null}
h -t 0.16504 -s 2 -d 3 -p cbr -e 1000 -c 0 -i 8 -a 0 -x {0.0 3.0 -1 ------- null}
+ -t 0.171428571428571 -s 0 -d 2 -p cbr -e 1000 -c 0 -i 30 -a 0 -x {0.0 3.0 30 ------- null}
- -t 0.171428571428571 -s 0 -d 2 -p cbr -e 1000 -c 0 -i 30 -a 0 -x {0.0 3.0 30 ------- null}
h -t 0.171428571428571 -s 0 -d 2 -p cbr -e 1000 -c 0 -i 30 -a 0 -x {0.0 3.0 -1 ------- null}
+ -t 0.171428571428571 -s 0 -d 2 -p cbr -e 1000 -c 0 -i 31 -a 0 -x {0.0 3.0 31 ------- null}
+ -t 0.171428571428571 -s 0 -d 2 -p cbr -e 1000 -c 0 -i 32 -a 0 -x {0.0 3.0 32 ------- null}
+ -t 0.171428571428571 -s 0 -d 2 -p cbr -e 1000 -c 0 -i 33 -a 0 -x {0.0 3.0 33 ------- null}
+ -t 0.171428571428571 -s 0 -d 2 -p cbr -e 1000 -c 0 -i 34 -a 0 -x {0.0 3.0 34 ------- null}
- -t 0.171468571428571 -s 0 -d 2 -p cbr -e 1000 -c 0 -i 31 -a 0 -x {0.0 3.0 31 ------- null}
h -t 0.171468571428571 -s 0 -d 2 -p cbr -e 1000 -c 0 -i 31 -a 0 -x {0.0 3.0 -1 ------- null}
- -t 0.171508571428572 -s 0 -d 2 -p cbr -e 1000 -c 0 -i 32 -a 0 -x {0.0 3.0 32 ------- null}
h -t 0.171508571428572 -s 0 -d 2 -p cbr -e 1000 -c 0 -i 32 -a 0 -x {0.0 3.0 -1 ------- null}
- -t 0.171548571428572 -s 0 -d 2 -p cbr -e 1000 -c 0 -i 33 -a 0 -x {0.0 3.0 33 ------- null}
h -t 0.171548571428572 -s 0 -d 2 -p cbr -e 1000 -c 0 -i 33 -a 0 -x {0.0 3.0 -1 ------- null}
- -t 0.171588571428572 -s 0 -d 2 -p cbr -e 1000 -c 0 -i 34 -a 0 -x {0.0 3.0 34 ------- null}
h -t 0.171588571428572 -s 0 -d 2 -p cbr -e 1000 -c 0 -i 34 -a 0 -x {0.0 3.0 -1 ------- null}
r -t 0.172468571428571 -s 0 -d 2 -p cbr -e 1000 -c 0 -i 30 -a 0 -x {0.0 3.0 30 ------- null}
+ -t 0.172468571428571 -s 2 -d 3 -p cbr -e 1000 -c 0 -i 30 -a 0 -x {0.0 3.0 30 ------- null}
r -t 0.172508571428572 -s 0 -d 2 -p cbr -e 1000 -c 0 -i 31 -a 0 -x {0.0 3.0 31 ------- null}
+ -t 0.172508571428572 -s 2 -d 3 -p cbr -e 1000 -c 0 -i 31 -a 0 -x {0.0 3.0 31 ------- null}
r -t 0.172548571428572 -s 0 -d 2 -p cbr -e 1000 -c 0 -i 32 -a 0 -x {0.0 3.0 32 ------- null}
+ -t 0.172548571428572 -s 2 -d 3 -p cbr -e 1000 -c 0 -i 32 -a 0 -x {0.0 3.0 32 ------- null}
r -t 0.172588571428572 -s 0 -d 2 -p cbr -e 1000 -c 0 -i 33 -a 0 -x {0.0 3.0 33 ------- null}
+ -t 0.172588571428572 -s 2 -d 3 -p cbr -e 1000 -c 0 -i 33 -a 0 -x {0.0 3.0 33 ------- null}
r -t 0.172628571428572 -s 0 -d 2 -p cbr -e 1000 -c 0 -i 34 -a 0 -x {0.0 3.0 34 ------- null}
+ -t 0.172628571428572 -s 2 -d 3 -p cbr -e 1000 -c 0 -i 34 -a 0 -x {0.0 3.0 34 ------- null}
- -t 0.17304 -s 2 -d 3 -p cbr -e 1000 -c 0 -i 9 -a 0 -x {0.0 3.0 9 ------- null}
h -t 0.17304 -s 2 -d 3 -p cbr -e 1000 -c 0 -i 9 -a 0 -x {0.0 3.0 -1 ------- null}
- -t 0.18104 -s 2 -d 3 -p cbr -e 1000 -c 0 -i 10 -a 0 -x {0.0 3.0 10 ------- null}
h -t 0.18104 -s 2 -d 3 -p cbr -e 1000 -c 0 -i 10 -a 0 -x {0.0 3.0 -1 ------- null}
+ -t 0.183333333333333 -s 0 -d 2 -p cbr -e 1000 -c 0 -i 35 -a 0 -x {0.0 3.0 35 ------- null}
- -t 0.183333333333333 -s 0 -d 2 -p cbr -e 1000 -c 0 -i 35 -a 0 -x {0.0 3.0 35 ------- null}
h -t 0.183333333333333 -s 0 -d 2 -p cbr -e 1000 -c 0 -i 35 -a 0 -x {0.0 3.0 -1 ------- null}
+ -t 0.183333333333333 -s 0 -d 2 -p cbr -e 1000 -c 0 -i 36 -a 0 -x {0.0 3.0 36 ------- null}
+ -t 0.183333333333333 -s 0 -d 2 -p cbr -e 1000 -c 0 -i 37 -a 0 -x {0.0 3.0 37 ------- null}
+ -t 0.183333333333333 -s 0 -d 2 -p cbr -e 1000 -c 0 -i 38 -a 0 -x {0.0 3.0 38 ------- null}
+ -t 0.183333333333333 -s 0 -d 2 -p cbr -e 1000 -c 0 -i 39 -a 0 -x {0.0 3.0 39 ------- null}
- -t 0.183373333333333 -s 0 -d 2 -p cbr -e 1000 -c 0 -i 36 -a 0 -x {0.0 3.0 36 ------- null}
h -t 0.183373333333333 -s 0 -d 2 -p cbr -e 1000 -c 0 -i 36 -a 0 -x {0.0 3.0 -1 ------- null}
- -t 0.183413333333333 -s 0 -d 2 -p cbr -e 1000 -c 0 -i 37 -a 0 -x {0.0 3.0 37 ------- null}
h -t 0.183413333333333 -s 0 -d 2 -p cbr -e 1000 -c 0 -i 37 -a 0 -x {0.0 3.0 -1 ------- null}
- -t 0.183453333333333 -s 0 -d 2 -p cbr -e 1000 -c 0 -i 38 -a 0 -x {0.0 3.0 38 ------- null}
h -t 0.183453333333333 -s 0 -d 2 -p cbr -e 1000 -c 0 -i 38 -a 0 -x {0.0 3.0 -1 ------- null}
- -t 0.183493333333333 -s 0 -d 2 -p cbr -e 1000 -c 0 -i 39 -a 0 -x {0.0 3.0 39 ------- null}
h -t 0.183493333333333 -s 0 -d 2 -p cbr -e 1000 -c 0 -i 39 -a 0 -x {0.0 3.0 -1 ------- null}
r -t 0.184373333333333 -s 0 -d 2 -p cbr -e 1000 -c 0 -i 35 -a 0 -x {0.0 3.0 35 ------- null}
+ -t 0.184373333333333 -s 2 -d 3 -p cbr -e 1000 -c 0 -i 35 -a 0 -x {0.0 3.0 35 ------- null}
r -t 0.184413333333333 -s 0 -d 2 -p cbr -e 1000 -c 0 -i 36 -a 0 -x {0.0 3.0 36 ------- null}
+ -t 0.184413333333333 -s 2 -d 3 -p cbr -e 1000 -c 0 -i 36 -a 0 -x {0.0 3.0 36 ------- null}
r -t 0.184453333333333 -s 0 -d 2 -p cbr -e 1000 -c 0 -i 37 -a 0 -x {0.0 3.0 37 ------- null}
+ -t 0.184453333333333 -s 2 -d 3 -p cbr -e 1000 -c 0 -i 37 -a 0 -x {0.0 3.0 37 ------- null}
r -t 0.184493333333333 -s 0 -d 2 -p cbr -e 1000 -c 0 -i 38 -a 0 -x {0.0 3.0 38 ------- null}
+ -t 0.184493333333333 -s 2 -d 3 -p cbr -e 1000 -c 0 -i 38 -a 0 -x {0.0 3.0 38 ------- null}
r -t 0.184533333333333 -s 0 -d 2 -p cbr -e 1000 -c 0 -i 39 -a 0 -x {0.0 3.0 39 ------- null}
+ -t 0.184533333333333 -s 2 -d 3 -p cbr -e 1000 -c 0 -i 39 -a 0 -x {0.0 3.0 39 ------- null}
- -t 0.18904 -s 2 -d 3 -p cbr -e 1000 -c 0 -i 11 -a 0 -x {0.0 3.0 11 ------- null}
h -t 0.18904 -s 2 -d 3 -p cbr -e 1000 -c 0 -i 11 -a 0 -x {0.0 3.0 -1 ------- null}
+ -t 0.195238095238095 -s 0 -d 2 -p cbr -e 1000 -c 0 -i 40 -a 0 -x {0.0 3.0 40 ------- null}
- -t 0.195238095238095 -s 0 -d 2 -p cbr -e 1000 -c 0 -i 40 -a 0 -x {0.0 3.0 40 ------- null}
h -t 0.195238095238095 -s 0 -d 2 -p cbr -e 1000 -c 0 -i 40 -a 0 -x {0.0 3.0 -1 ------- null}
+ -t 0.195238095238095 -s 0 -d 2 -p cbr -e 1000 -c 0 -i 41 -a 0 -x {0.0 3.0 41 ------- null}
+ -t 0.195238095238095 -s 0 -d 2 -p cbr -e 1000 -c 0 -i 42 -a 0 -x {0.0 3.0 42 ------- null}
+ -t 0.195238095238095 -s 0 -d 2 -p cbr -e 1000 -c 0 -i 43 -a 0 -x {0.0 3.0 43 ------- null}
+ -t 0.195238095238095 -s 0 -d 2 -p cbr -e 1000 -c 0 -i 44 -a 0 -x {0.0 3.0 44 ------- null}
- -t 0.195278095238095 -s 0 -d 2 -p cbr -e 1000 -c 0 -i 41 -a 0 -x {0.0 3.0 41 ------- null}
h -t 0.195278095238095 -s 0 -d 2 -p cbr -e 1000 -c 0 -i 41 -a 0 -x {0.0 3.0 -1 ------- null}
- -t 0.195318095238095 -s 0 -d 2 -p cbr -e 1000 -c 0 -i 42 -a 0 -x {0.0 3.0 42 ------- null}
h -t 0.195318095238095 -s 0 -d 2 -p cbr -e 1000 -c 0 -i 42 -a 0 -x {0.0 3.0 -1 ------- null}
- -t 0.195358095238095 -s 0 -d 2 -p cbr -e 1000 -c 0 -i 43 -a 0 -x {0.0 3.0 43 ------- null}
h -t 0.195358095238095 -s 0 -d 2 -p cbr -e 1000 -c 0 -i 43 -a 0 -x {0.0 3.0 -1 ------- null}
- -t 0.195398095238095 -s 0 -d 2 -p cbr -e 1000 -c 0 -i 44 -a 0 -x {0.0 3.0 44 ------- null}
h -t 0.195398095238095 -s 0 -d 2 -p cbr -e 1000 -c 0 -i 44 -a 0 -x {0.0 3.0 -1 ------- null}
r -t 0.196278095238095 -s 0 -d 2 -p cbr -e 1000 -c 0 -i 40 -a 0 -x {0.0 3.0 40 ------- null}
+ -t 0.196278095238095 -s 2 -d 3 -p cbr -e 1000 -c 0 -i 40 -a 0 -x {0.0 3.0 40 ------- null}
r -t 0.196318095238095 -s 0 -d 2 -p cbr -e 1000 -c 0 -i 41 -a 0 -x {0.0 3.0 41 ------- null}
+ -t 0.196318095238095 -s 2 -d 3 -p cbr -e 1000 -c 0 -i 41 -a 0 -x {0.0 3.0 41 ------- null}
r -t 0.196358095238095 -s 0 -d 2 -p cbr -e 1000 -c 0 -i 42 -a 0 -x {0.0 3.0 42 ------- null}
+ -t 0.196358095238095 -s 2 -d 3 -p cbr -e 1000 -c 0 -i 42 -a 0 -x {0.0 3.0 42 ------- null}
r -t 0.196398095238095 -s 0 -d 2 -p cbr -e 1000 -c 0 -i 43 -a 0 -x {0.0 3.0 43 ------- null}
+ -t 0.196398095238095 -s 2 -d 3 -p cbr -e 1000 -c 0 -i 43 -a 0 -x {0.0 3.0 43 ------- null}
r -t 0.196438095238095 -s 0 -d 2 -p cbr -e 1000 -c 0 -i 44 -a 0 -x {0.0 3.0 44 ------- null}
+ -t 0.196438095238095 -s 2 -d 3 -p cbr -e 1000 -c 0 -i 44 -a 0 -x {0.0 3.0 44 ------- null}
- -t 0.19704 -s 2 -d 3 -p cbr -e 1000 -c 0 -i 12 -a 0 -x {0.0 3.0 12 ------- null}
h -t 0.19704 -s 2 -d 3 -p cbr -e 1000 -c 0 -i 12 -a 0 -x {0.0 3.0 -1 ------- null}
+ -t 0.2 -s 0 -d 2 -p cbr -e 210 -c 0 -i 45 -a 0 -x {0.0 3.0 45 ------- null}
- -t 0.2 -s 0 -d 2 -p cbr -e 210 -c 0 -i 45 -a 0 -x {0.0 3.0 45 ------- null}
h -t 0.2 -s 0 -d 2 -p cbr -e 210 -c 0 -i 45 -a 0 -x {0.0 3.0 -1 ------- null}
r -t 0.2010084 -s 0 -d 2 -p cbr -e 210 -c 0 -i 45 -a 0 -x {0.0 3.0 45 ------- null}
+ -t 0.2010084 -s 2 -d 3 -p cbr -e 210 -c 0 -i 45 -a 0 -x {0.0 3.0 45 ------- null}
+ -t 0.20375 -s 0 -d 2 -p cbr -e 210 -c 0 -i 46 -a 0 -x {0.0 3.0 46 ------- null}
- -t 0.20375 -s 0 -d 2 -p cbr -e 210 -c 0 -i 46 -a 0 -x {0.0 3.0 46 ------- null}
h -t 0.20375 -s 0 -d 2 -p cbr -e 210 -c 0 -i 46 -a 0 -x {0.0 3.0 -1 ------- null}
r -t 0.2047584 -s 0 -d 2 -p cbr -e 210 -c 0 -i 46 -a 0 -x {0.0 3.0 46 ------- null}
+ -t 0.2047584 -s 2 -d 3 -p cbr -e 210 -c 0 -i 46 -a 0 -x {0.0 3.0 46 ------- null}
- -t 0.20504 -s 2 -d 3 -p cbr -e 1000 -c 0 -i 13 -a 0 -x {0.0 3.0 13 ------- null}
h -t 0.20504 -s 2 -d 3 -p cbr -e 1000 -c 0 -i 13 -a 0 -x {0.0 3.0 -1 ------- null}
+ -t 0.207142857142857 -s 0 -d 2 -p cbr -e 1000 -c 0 -i 47 -a 0 -x {0.0 3.0 47 ------- null}
- -t 0.207142857142857 -s 0 -d 2 -p cbr -e 1000 -c 0 -i 47 -a 0 -x {0.0 3.0 47 ------- null}
h -t 0.207142857142857 -s 0 -d 2 -p cbr -e 1000 -c 0 -i 47 -a 0 -x {0.0 3.0 -1 ------- null}
+ -t 0.207142857142857 -s 0 -d 2 -p cbr -e 1000 -c 0 -i 48 -a 0 -x {0.0 3.0 48 ------- null}
+ -t 0.207142857142857 -s 0 -d 2 -p cbr -e 1000 -c 0 -i 49 -a 0 -x {0.0 3.0 49 ------- null}
+ -t 0.207142857142857 -s 0 -d 2 -p cbr -e 1000 -c 0 -i 50 -a 0 -x {0.0 3.0 50 ------- null}
+ -t 0.207142857142857 -s 0 -d 2 -p cbr -e 1000 -c 0 -i 51 -a 0 -x {0.0 3.0 51 ------- null}
- -t 0.207182857142857 -s 0 -d 2 -p cbr -e 1000 -c 0 -i 48 -a 0 -x {0.0 3.0 48 ------- null}
h -t 0.207182857142857 -s 0 -d 2 -p cbr -e 1000 -c 0 -i 48 -a 0 -x {0.0 3.0 -1 ------- null}
- -t 0.207222857142857 -s 0 -d 2 -p cbr -e 1000 -c 0 -i 49 -a 0 -x {0.0 3.0 49 ------- null}
h -t 0.207222857142857 -s 0 -d 2 -p cbr -e 1000 -c 0 -i 49 -a 0 -x {0.0 3.0 -1 ------- null}
- -t 0.207262857142857 -s 0 -d 2 -p cbr -e 1000 -c 0 -i 50 -a 0 -x {0.0 3.0 50 ------- null}
h -t 0.207262857142857 -s 0 -d 2 -p cbr -e 1000 -c 0 -i 50 -a 0 -x {0.0 3.0 -1 ------- null}
- -t 0.207302857142857 -s 0 -d 2 -p cbr -e 1000 -c 0 -i 51 -a 0 -x {0.0 3.0 51 ------- null}
h -t 0.207302857142857 -s 0 -d 2 -p cbr -e 1000 -c 0 -i 51 -a 0 -x {0.0 3.0 -1 ------- null}
+ -t 0.2075 -s 0 -d 2 -p cbr -e 210 -c 0 -i 52 -a 0 -x {0.0 3.0 52 ------- null}
- -t 0.2075 -s 0 -d 2 -p cbr -e 210 -c 0 -i 52 -a 0 -x {0.0 3.0 52 ------- null}
h -t 0.2075 -s 0 -d 2 -p cbr -e 210 -c 0 -i 52 -a 0 -x {0.0 3.0 -1 ------- null}
r -t 0.208182857142857 -s 0 -d 2 -p cbr -e 1000 -c 0 -i 47 -a 0 -x {0.0 3.0 47 ------- null}
+ -t 0.208182857142857 -s 2 -d 3 -p cbr -e 1000 -c 0 -i 47 -a 0 -x {0.0 3.0 47 ------- null}
r -t 0.208222857142857 -s 0 -d 2 -p cbr -e 1000 -c 0 -i 48 -a 0 -x {0.0 3.0 48 ------- null}
+ -t 0.208222857142857 -s 2 -d 3 -p cbr -e 1000 -c 0 -i 48 -a 0 -x {0.0 3.0 48 ------- null}
r -t 0.208262857142857 -s 0 -d 2 -p cbr -e 1000 -c 0 -i 49 -a 0 -x {0.0 3.0 49 ------- null}
+ -t 0.208262857142857 -s 2 -d 3 -p cbr -e 1000 -c 0 -i 49 -a 0 -x {0.0 3.0 49 ------- null}
r -t 0.208302857142857 -s 0 -d 2 -p cbr -e 1000 -c 0 -i 50 -a 0 -x {0.0 3.0 50 ------- null}
+ -t 0.208302857142857 -s 2 -d 3 -p cbr -e 1000 -c 0 -i 50 -a 0 -x {0.0 3.0 50 ------- null}
r -t 0.208342857142857 -s 0 -d 2 -p cbr -e 1000 -c 0 -i 51 -a 0 -x {0.0 3.0 51 ------- null}
+ -t 0.208342857142857 -s 2 -d 3 -p cbr -e 1000 -c 0 -i 51 -a 0 -x {0.0 3.0 51 ------- null}
r -t 0.2085084 -s 0 -d 2 -p cbr -e 210 -c 0 -i 52 -a 0 -x {0.0 3.0 52 ------- null}
+ -t 0.2085084 -s 2 -d 3 -p cbr -e 210 -c 0 -i 52 -a 0 -x {0.0 3.0 52 ------- null}
+ -t 0.21125 -s 0 -d 2 -p cbr -e 210 -c 0 -i 53 -a 0 -x {0.0 3.0 53 ------- null}
- -t 0.21125 -s 0 -d 2 -p cbr -e 210 -c 0 -i 53 -a 0 -x {0.0 3.0 53 ------- null}
h -t 0.21125 -s 0 -d 2 -p cbr -e 210 -c 0 -i 53 -a 0 -x {0.0 3.0 -1 ------- null}
r -t 0.2122584 -s 0 -d 2 -p cbr -e 210 -c 0 -i 53 -a 0 -x {0.0 3.0 53 ------- null}
+ -t 0.2122584 -s 2 -d 3 -p cbr -e 210 -c 0 -i 53 -a 0 -x {0.0 3.0 53 ------- null}
- -t 0.21304 -s 2 -d 3 -p cbr -e 1000 -c 0 -i 14 -a 0 -x {0.0 3.0 14 ------- null}
h -t 0.21304 -s 2 -d 3 -p cbr -e 1000 -c 0 -i 14 -a 0 -x {0.0 3.0 -1 ------- null}
+ -t 0.215 -s 0 -d 2 -p cbr -e 210 -c 0 -i 54 -a 0 -x {0.0 3.0 54 ------- null}
- -t 0.215 -s 0 -d 2 -p cbr -e 210 -c 0 -i 54 -a 0 -x {0.0 3.0 54 ------- null}
h -t 0.215 -s 0 -d 2 -p cbr -e 210 -c 0 -i 54 -a 0 -x {0.0 3.0 -1 ------- null}
r -t 0.2160084 -s 0 -d 2 -p cbr -e 210 -c 0 -i 54 -a 0 -x {0.0 3.0 54 ------- null}
+ -t 0.2160084 -s 2 -d 3 -p cbr -e 210 -c 0 -i 54 -a 0 -x {0.0 3.0 54 ------- null}
+ -t 0.21875 -s 0 -d 2 -p cbr -e 210 -c 0 -i 55 -a 0 -x {0.0 3.0 55 ------- null}
- -t 0.21875 -s 0 -d 2 -p cbr -e 210 -c 0 -i 55 -a 0 -x {0.0 3.0 55 ------- null}
h -t 0.21875 -s 0 -d 2 -p cbr -e 210 -c 0 -i 55 -a 0 -x {0.0 3.0 -1 ------- null}
+ -t 0.219047619047619 -s 0 -d 2 -p cbr -e 1000 -c 0 -i 56 -a 0 -x {0.0 3.0 56 ------- null}
- -t 0.219047619047619 -s 0 -d 2 -p cbr -e 1000 -c 0 -i 56 -a 0 -x {0.0 3.0 56 ------- null}
h -t 0.219047619047619 -s 0 -d 2 -p cbr -e 1000 -c 0 -i 56 -a 0 -x {0.0 3.0 -1 ------- null}
+ -t 0.219047619047619 -s 0 -d 2 -p cbr -e 1000 -c 0 -i 57 -a 0 -x {0.0 3.0 57 ------- null}
+ -t 0.219047619047619 -s 0 -d 2 -p cbr -e 1000 -c 0 -i 58 -a 0 -x {0.0 3.0 58 ------- null}
+ -t 0.219047619047619 -s 0 -d 2 -p cbr -e 1000 -c 0 -i 59 -a 0 -x {0.0 3.0 59 ------- null}
+ -t 0.219047619047619 -s 0 -d 2 -p cbr -e 1000 -c 0 -i 60 -a 0 -x {0.0 3.0 60 ------- null}
- -t 0.219087619047619 -s 0 -d 2 -p cbr -e 1000 -c 0 -i 57 -a 0 -x {0.0 3.0 57 ------- null}
h -t 0.219087619047619 -s 0 -d 2 -p cbr -e 1000 -c 0 -i 57 -a 0 -x {0.0 3.0 -1 ------- null}
- -t 0.219127619047619 -s 0 -d 2 -p cbr -e 1000 -c 0 -i 58 -a 0 -x {0.0 3.0 58 ------- null}
h -t 0.219127619047619 -s 0 -d 2 -p cbr -e 1000 -c 0 -i 58 -a 0 -x {0.0 3.0 -1 ------- null}
- -t 0.219167619047619 -s 0 -d 2 -p cbr -e 1000 -c 0 -i 59 -a 0 -x {0.0 3.0 59 ------- null}
h -t 0.219167619047619 -s 0 -d 2 -p cbr -e 1000 -c 0 -i 59 -a 0 -x {0.0 3.0 -1 ------- null}
- -t 0.219207619047619 -s 0 -d 2 -p cbr -e 1000 -c 0 -i 60 -a 0 -x {0.0 3.0 60 ------- null}
h -t 0.219207619047619 -s 0 -d 2 -p cbr -e 1000 -c 0 -i 60 -a 0 -x {0.0 3.0 -1 ------- null}
r -t 0.2197584 -s 0 -d 2 -p cbr -e 210 -c 0 -i 55 -a 0 -x {0.0 3.0 55 ------- null}
+ -t 0.2197584 -s 2 -d 3 -p cbr -e 210 -c 0 -i 55 -a 0 -x {0.0 3.0 55 ------- null}
r -t 0.220087619047619 -s 0 -d 2 -p cbr -e 1000 -c 0 -i 56 -a 0 -x {0.0 3.0 56 ------- null}
+ -t 0.220087619047619 -s 2 -d 3 -p cbr -e 1000 -c 0 -i 56 -a 0 -x {0.0 3.0 56 ------- null}
r -t 0.220127619047619 -s 0 -d 2 -p cbr -e 1000 -c 0 -i 57 -a 0 -x {0.0 3.0 57 ------- null}
+ -t 0.220127619047619 -s 2 -d 3 -p cbr -e 1000 -c 0 -i 57 -a 0 -x {0.0 3.0 57 ------- null}