+ 0.1 0 4 ping 5000000 ------- 0 0.0 5.0 -1 0
- 0.1 0 4 ping 5000000 ------- 0 0.0 5.0 -1 0
+ 0.1 2 4 ping 64 ------- 0 2.0 3.0 -1 1
- 0.1 2 4 ping 64 ------- 0 2.0 3.0 -1 1
r 0.101 2 4 ping 64 ------- 0 2.0 3.0 -1 1
+ 0.101 4 3 ping 64 ------- 0 2.0 3.0 -1 1
- 0.101 4 3 ping 64 ------- 0 2.0 3.0 -1 1
r 0.102003 4 3 ping 64 ------- 0 2.0 3.0 -1 1
+ 0.102003 3 4 ping 64 ------- 0 3.0 2.0 -1 2
- 0.102003 3 4 ping 64 ------- 0 3.0 2.0 -1 2
r 0.103005 3 4 ping 64 ------- 0 3.0 2.0 -1 2
+ 0.103005 4 2 ping 64 ------- 0 3.0 2.0 -1 2
- 0.103005 4 2 ping 64 ------- 0 3.0 2.0 -1 2
r 0.104006 4 2 ping 64 ------- 0 3.0 2.0 -1 2
r 0.140801 0 4 ping 5000000 ------- 0 0.0 5.0 -1 0
+ 0.140801 4 5 ping 5000000 ------- 0 0.0 5.0 -1 0
- 0.140801 4 5 ping 5000000 ------- 0 0.0 5.0 -1 0
+ 0.2 0 4 ping 5000000 ------- 0 0.0 5.0 -1 3
- 0.2 0 4 ping 5000000 ------- 0 0.0 5.0 -1 3
+ 0.2 2 4 ping 64 ------- 0 2.0 3.0 -1 4
- 0.2 2 4 ping 64 ------- 0 2.0 3.0 -1 4
r 0.201 2 4 ping 64 ------- 0 2.0 3.0 -1 4
+ 0.201 4 3 ping 64 ------- 0 2.0 3.0 -1 4
- 0.201 4 3 ping 64 ------- 0 2.0 3.0 -1 4
r 0.202003 4 3 ping 64 ------- 0 2.0 3.0 -1 4
+ 0.202003 3 4 ping 64 ------- 0 3.0 2.0 -1 5
- 0.202003 3 4 ping 64 ------- 0 3.0 2.0 -1 5
r 0.203005 3 4 ping 64 ------- 0 3.0 2.0 -1 5
+ 0.203005 4 2 ping 64 ------- 0 3.0 2.0 -1 5
- 0.203005 4 2 ping 64 ------- 0 3.0 2.0 -1 5
r 0.204006 4 2 ping 64 ------- 0 3.0 2.0 -1 5
r 0.240801 0 4 ping 5000000 ------- 0 0.0 5.0 -1 3
+ 0.240801 4 5 ping 5000000 ------- 0 0.0 5.0 -1 3
+ 0.3 0 4 ping 5000000 ------- 0 0.0 5.0 -1 6
- 0.3 0 4 ping 5000000 ------- 0 0.0 5.0 -1 6
+ 0.3 2 4 ping 64 ------- 0 2.0 3.0 -1 7
- 0.3 2 4 ping 64 ------- 0 2.0 3.0 -1 7
r 0.301 2 4 ping 64 ------- 0 2.0 3.0 -1 7
+ 0.301 4 3 ping 64 ------- 0 2.0 3.0 -1 7
- 0.301 4 3 ping 64 ------- 0 2.0 3.0 -1 7
r 0.302003 4 3 ping 64 ------- 0 2.0 3.0 -1 7
+ 0.302003 3 4 ping 64 ------- 0 3.0 2.0 -1 8
- 0.302003 3 4 ping 64 ------- 0 3.0 2.0 -1 8
r 0.303005 3 4 ping 64 ------- 0 3.0 2.0 -1 8
+ 0.303005 4 2 ping 64 ------- 0 3.0 2.0 -1 8
- 0.303005 4 2 ping 64 ------- 0 3.0 2.0 -1 8
r 0.304006 4 2 ping 64 ------- 0 3.0 2.0 -1 8
r 0.340801 0 4 ping 5000000 ------- 0 0.0 5.0 -1 6
+ 0.340801 4 5 ping 5000000 ------- 0 0.0 5.0 -1 6
d 0.340801 4 5 ping 5000000 ------- 0 0.0 5.0 -1 6
+ 0.4 0 4 ping 5000000 ------- 0 0.0 5.0 -1 9
- 0.4 0 4 ping 5000000 ------- 0 0.0 5.0 -1 9
+ 0.4 2 4 ping 64 ------- 0 2.0 3.0 -1 10
- 0.4 2 4 ping 64 ------- 0 2.0 3.0 -1 10
r 0.401 2 4 ping 64 ------- 0 2.0 3.0 -1 10
+ 0.401 4 3 ping 64 ------- 0 2.0 3.0 -1 10
- 0.401 4 3 ping 64 ------- 0 2.0 3.0 -1 10
r 0.402003 4 3 ping 64 ------- 0 2.0 3.0 -1 10
+ 0.402003 3 4 ping 64 ------- 0 3.0 2.0 -1 11
- 0.402003 3 4 ping 64 ------- 0 3.0 2.0 -1 11
r 0.403005 3 4 ping 64 ------- 0 3.0 2.0 -1 11
+ 0.403005 4 2 ping 64 ------- 0 3.0 2.0 -1 11
- 0.403005 4 2 ping 64 ------- 0 3.0 2.0 -1 11
r 0.404006 4 2 ping 64 ------- 0 3.0 2.0 -1 11
r 0.440801 0 4 ping 5000000 ------- 0 0.0 5.0 -1 9
+ 0.440801 4 5 ping 5000000 ------- 0 0.0 5.0 -1 9
d 0.440801 4 5 ping 5000000 ------- 0 0.0 5.0 -1 9
+ 0.5 0 4 ping 5000000 ------- 0 0.0 5.0 -1 12
- 0.5 0 4 ping 5000000 ------- 0 0.0 5.0 -1 12
+ 0.5 2 4 ping 64 ------- 0 2.0 3.0 -1 13
- 0.5 2 4 ping 64 ------- 0 2.0 3.0 -1 13
r 0.501 2 4 ping 64 ------- 0 2.0 3.0 -1 13
+ 0.501 4 3 ping 64 ------- 0 2.0 3.0 -1 13
- 0.501 4 3 ping 64 ------- 0 2.0 3.0 -1 13
r 0.502003 4 3 ping 64 ------- 0 2.0 3.0 -1 13
+ 0.502003 3 4 ping 64 ------- 0 3.0 2.0 -1 14
- 0.502003 3 4 ping 64 ------- 0 3.0 2.0 -1 14
r 0.503005 3 4 ping 64 ------- 0 3.0 2.0 -1 14
+ 0.503005 4 2 ping 64 ------- 0 3.0 2.0 -1 14
- 0.503005 4 2 ping 64 ------- 0 3.0 2.0 -1 14
r 0.504006 4 2 ping 64 ------- 0 3.0 2.0 -1 14
r 0.540801 0 4 ping 5000000 ------- 0 0.0 5.0 -1 12
+ 0.540801 4 5 ping 5000000 ------- 0 0.0 5.0 -1 12
d 0.540801 4 5 ping 5000000 ------- 0 0.0 5.0 -1 12
+ 0.6 0 4 ping 5000000 ------- 0 0.0 5.0 -1 15
- 0.6 0 4 ping 5000000 ------- 0 0.0 5.0 -1 15
+ 0.6 2 4 ping 64 ------- 0 2.0 3.0 -1 16
- 0.6 2 4 ping 64 ------- 0 2.0 3.0 -1 16
r 0.601 2 4 ping 64 ------- 0 2.0 3.0 -1 16
+ 0.601 4 3 ping 64 ------- 0 2.0 3.0 -1 16
- 0.601 4 3 ping 64 ------- 0 2.0 3.0 -1 16
r 0.602003 4 3 ping 64 ------- 0 2.0 3.0 -1 16
+ 0.602003 3 4 ping 64 ------- 0 3.0 2.0 -1 17
- 0.602003 3 4 ping 64 ------- 0 3.0 2.0 -1 17
r 0.603005 3 4 ping 64 ------- 0 3.0 2.0 -1 17
+ 0.603005 4 2 ping 64 ------- 0 3.0 2.0 -1 17
- 0.603005 4 2 ping 64 ------- 0 3.0 2.0 -1 17
r 0.604006 4 2 ping 64 ------- 0 3.0 2.0 -1 17
r 0.640801 0 4 ping 5000000 ------- 0 0.0 5.0 -1 15
+ 0.640801 4 5 ping 5000000 ------- 0 0.0 5.0 -1 15
d 0.640801 4 5 ping 5000000 ------- 0 0.0 5.0 -1 15
+ 0.7 0 4 ping 5000000 ------- 0 0.0 5.0 -1 18
- 0.7 0 4 ping 5000000 ------- 0 0.0 5.0 -1 18
+ 0.7 2 4 ping 64 ------- 0 2.0 3.0 -1 19
- 0.7 2 4 ping 64 ------- 0 2.0 3.0 -1 19
r 0.701 2 4 ping 64 ------- 0 2.0 3.0 -1 19
+ 0.701 4 3 ping 64 ------- 0 2.0 3.0 -1 19
- 0.701 4 3 ping 64 ------- 0 2.0 3.0 -1 19
r 0.702003 4 3 ping 64 ------- 0 2.0 3.0 -1 19
+ 0.702003 3 4 ping 64 ------- 0 3.0 2.0 -1 20
- 0.702003 3 4 ping 64 ------- 0 3.0 2.0 -1 20
r 0.703005 3 4 ping 64 ------- 0 3.0 2.0 -1 20
+ 0.703005 4 2 ping 64 ------- 0 3.0 2.0 -1 20
- 0.703005 4 2 ping 64 ------- 0 3.0 2.0 -1 20
r 0.704006 4 2 ping 64 ------- 0 3.0 2.0 -1 20
r 0.740801 0 4 ping 5000000 ------- 0 0.0 5.0 -1 18
+ 0.740801 4 5 ping 5000000 ------- 0 0.0 5.0 -1 18
d 0.740801 4 5 ping 5000000 ------- 0 0.0 5.0 -1 18
+ 0.8 0 4 ping 5000000 ------- 0 0.0 5.0 -1 21
- 0.8 0 4 ping 5000000 ------- 0 0.0 5.0 -1 21
+ 0.8 2 4 ping 64 ------- 0 2.0 3.0 -1 22
- 0.8 2 4 ping 64 ------- 0 2.0 3.0 -1 22
r 0.801 2 4 ping 64 ------- 0 2.0 3.0 -1 22
+ 0.801 4 3 ping 64 ------- 0 2.0 3.0 -1 22
- 0.801 4 3 ping 64 ------- 0 2.0 3.0 -1 22
r 0.802003 4 3 ping 64 ------- 0 2.0 3.0 -1 22
+ 0.802003 3 4 ping 64 ------- 0 3.0 2.0 -1 23
- 0.802003 3 4 ping 64 ------- 0 3.0 2.0 -1 23
r 0.803005 3 4 ping 64 ------- 0 3.0 2.0 -1 23
+ 0.803005 4 2 ping 64 ------- 0 3.0 2.0 -1 23
- 0.803005 4 2 ping 64 ------- 0 3.0 2.0 -1 23
r 0.804006 4 2 ping 64 ------- 0 3.0 2.0 -1 23
r 0.840801 0 4 ping 5000000 ------- 0 0.0 5.0 -1 21
+ 0.840801 4 5 ping 5000000 ------- 0 0.0 5.0 -1 21
d 0.840801 4 5 ping 5000000 ------- 0 0.0 5.0 -1 21
+ 0.9 0 4 ping 5000000 ------- 0 0.0 5.0 -1 24
- 0.9 0 4 ping 5000000 ------- 0 0.0 5.0 -1 24
+ 0.9 2 4 ping 64 ------- 0 2.0 3.0 -1 25
- 0.9 2 4 ping 64 ------- 0 2.0 3.0 -1 25
r 0.901 2 4 ping 64 ------- 0 2.0 3.0 -1 25
+ 0.901 4 3 ping 64 ------- 0 2.0 3.0 -1 25
- 0.901 4 3 ping 64 ------- 0 2.0 3.0 -1 25
r 0.902003 4 3 ping 64 ------- 0 2.0 3.0 -1 25
+ 0.902003 3 4 ping 64 ------- 0 3.0 2.0 -1 26
- 0.902003 3 4 ping 64 ------- 0 3.0 2.0 -1 26
r 0.903005 3 4 ping 64 ------- 0 3.0 2.0 -1 26
+ 0.903005 4 2 ping 64 ------- 0 3.0 2.0 -1 26
- 0.903005 4 2 ping 64 ------- 0 3.0 2.0 -1 26
r 0.904006 4 2 ping 64 ------- 0 3.0 2.0 -1 26
r 0.940801 0 4 ping 5000000 ------- 0 0.0 5.0 -1 24
+ 0.940801 4 5 ping 5000000 ------- 0 0.0 5.0 -1 24
d 0.940801 4 5 ping 5000000 ------- 0 0.0 5.0 -1 24
+ 1 0 4 ping 5000000 ------- 0 0.0 5.0 -1 27
- 1 0 4 ping 5000000 ------- 0 0.0 5.0 -1 27
+ 1 2 4 ping 64 ------- 0 2.0 3.0 -1 28
- 1 2 4 ping 64 ------- 0 2.0 3.0 -1 28
r 1.001 2 4 ping 64 ------- 0 2.0 3.0 -1 28
+ 1.001 4 3 ping 64 ------- 0 2.0 3.0 -1 28
- 1.001 4 3 ping 64 ------- 0 2.0 3.0 -1 28
r 1.002003 4 3 ping 64 ------- 0 2.0 3.0 -1 28
+ 1.002003 3 4 ping 64 ------- 0 3.0 2.0 -1 29
- 1.002003 3 4 ping 64 ------- 0 3.0 2.0 -1 29
r 1.003005 3 4 ping 64 ------- 0 3.0 2.0 -1 29
+ 1.003005 4 2 ping 64 ------- 0 3.0 2.0 -1 29
- 1.003005 4 2 ping 64 ------- 0 3.0 2.0 -1 29
r 1.004006 4 2 ping 64 ------- 0 3.0 2.0 -1 29
r 1.040801 0 4 ping 5000000 ------- 0 0.0 5.0 -1 27
+ 1.040801 4 5 ping 5000000 ------- 0 0.0 5.0 -1 27
d 1.040801 4 5 ping 5000000 ------- 0 0.0 5.0 -1 27
+ 1.1 0 4 ping 5000000 ------- 0 0.0 5.0 -1 30
- 1.1 0 4 ping 5000000 ------- 0 0.0 5.0 -1 30
+ 1.1 2 4 ping 64 ------- 0 2.0 3.0 -1 31
- 1.1 2 4 ping 64 ------- 0 2.0 3.0 -1 31
r 1.101 2 4 ping 64 ------- 0 2.0 3.0 -1 31
+ 1.101 4 3 ping 64 ------- 0 2.0 3.0 -1 31
- 1.101 4 3 ping 64 ------- 0 2.0 3.0 -1 31
r 1.102003 4 3 ping 64 ------- 0 2.0 3.0 -1 31
+ 1.102003 3 4 ping 64 ------- 0 3.0 2.0 -1 32
- 1.102003 3 4 ping 64 ------- 0 3.0 2.0 -1 32
r 1.103005 3 4 ping 64 ------- 0 3.0 2.0 -1 32
+ 1.103005 4 2 ping 64 ------- 0 3.0 2.0 -1 32
- 1.103005 4 2 ping 64 ------- 0 3.0 2.0 -1 32
r 1.104006 4 2 ping 64 ------- 0 3.0 2.0 -1 32
r 1.140801 0 4 ping 5000000 ------- 0 0.0 5.0 -1 30
+ 1.140801 4 5 ping 5000000 ------- 0 0.0 5.0 -1 30
d 1.140801 4 5 ping 5000000 ------- 0 0.0 5.0 -1 30
+ 1.2 0 4 ping 5000000 ------- 0 0.0 5.0 -1 33
- 1.2 0 4 ping 5000000 ------- 0 0.0 5.0 -1 33
+ 1.2 2 4 ping 64 ------- 0 2.0 3.0 -1 34
- 1.2 2 4 ping 64 ------- 0 2.0 3.0 -1 34
r 1.201 2 4 ping 64 ------- 0 2.0 3.0 -1 34
+ 1.201 4 3 ping 64 ------- 0 2.0 3.0 -1 34
- 1.201 4 3 ping 64 ------- 0 2.0 3.0 -1 34
r 1.202003 4 3 ping 64 ------- 0 2.0 3.0 -1 34
+ 1.202003 3 4 ping 64 ------- 0 3.0 2.0 -1 35
- 1.202003 3 4 ping 64 ------- 0 3.0 2.0 -1 35
r 1.203005 3 4 ping 64 ------- 0 3.0 2.0 -1 35
+ 1.203005 4 2 ping 64 ------- 0 3.0 2.0 -1 35
- 1.203005 4 2 ping 64 ------- 0 3.0 2.0 -1 35
r 1.204006 4 2 ping 64 ------- 0 3.0 2.0 -1 35
r 1.240801 0 4 ping 5000000 ------- 0 0.0 5.0 -1 33
+ 1.240801 4 5 ping 5000000 ------- 0 0.0 5.0 -1 33
d 1.240801 4 5 ping 5000000 ------- 0 0.0 5.0 -1 33
+ 1.3 0 4 ping 5000000 ------- 0 0.0 5.0 -1 36
- 1.3 0 4 ping 5000000 ------- 0 0.0 5.0 -1 36
+ 1.3 2 4 ping 64 ------- 0 2.0 3.0 -1 37
- 1.3 2 4 ping 64 ------- 0 2.0 3.0 -1 37
r 1.301 2 4 ping 64 ------- 0 2.0 3.0 -1 37
+ 1.301 4 3 ping 64 ------- 0 2.0 3.0 -1 37
- 1.301 4 3 ping 64 ------- 0 2.0 3.0 -1 37
r 1.302003 4 3 ping 64 ------- 0 2.0 3.0 -1 37
+ 1.302003 3 4 ping 64 ------- 0 3.0 2.0 -1 38
- 1.302003 3 4 ping 64 ------- 0 3.0 2.0 -1 38
r 1.303005 3 4 ping 64 ------- 0 3.0 2.0 -1 38
+ 1.303005 4 2 ping 64 ------- 0 3.0 2.0 -1 38
- 1.303005 4 2 ping 64 ------- 0 3.0 2.0 -1 38
r 1.304006 4 2 ping 64 ------- 0 3.0 2.0 -1 38
r 1.340801 0 4 ping 5000000 ------- 0 0.0 5.0 -1 36
+ 1.340801 4 5 ping 5000000 ------- 0 0.0 5.0 -1 36
d 1.340801 4 5 ping 5000000 ------- 0 0.0 5.0 -1 36
+ 1.4 0 4 ping 5000000 ------- 0 0.0 5.0 -1 39
- 1.4 0 4 ping 5000000 ------- 0 0.0 5.0 -1 39
+ 1.4 2 4 ping 64 ------- 0 2.0 3.0 -1 40
- 1.4 2 4 ping 64 ------- 0 2.0 3.0 -1 40
r 1.401 2 4 ping 64 ------- 0 2.0 3.0 -1 40
+ 1.401 4 3 ping 64 ------- 0 2.0 3.0 -1 40
- 1.401 4 3 ping 64 ------- 0 2.0 3.0 -1 40
r 1.402003 4 3 ping 64 ------- 0 2.0 3.0 -1 40
+ 1.402003 3 4 ping 64 ------- 0 3.0 2.0 -1 41
- 1.402003 3 4 ping 64 ------- 0 3.0 2.0 -1 41
r 1.403005 3 4 ping 64 ------- 0 3.0 2.0 -1 41
+ 1.403005 4 2 ping 64 ------- 0 3.0 2.0 -1 41
- 1.403005 4 2 ping 64 ------- 0 3.0 2.0 -1 41
r 1.404006 4 2 ping 64 ------- 0 3.0 2.0 -1 41
r 1.440801 0 4 ping 5000000 ------- 0 0.0 5.0 -1 39
+ 1.440801 4 5 ping 5000000 ------- 0 0.0 5.0 -1 39
d 1.440801 4 5 ping 5000000 ------- 0 0.0 5.0 -1 39
+ 1.5 0 4 ping 5000000 ------- 0 0.0 5.0 -1 42
- 1.5 0 4 ping 5000000 ------- 0 0.0 5.0 -1 42
+ 1.5 2 4 ping 64 ------- 0 2.0 3.0 -1 43
- 1.5 2 4 ping 64 ------- 0 2.0 3.0 -1 43
r 1.501 2 4 ping 64 ------- 0 2.0 3.0 -1 43
+ 1.501 4 3 ping 64 ------- 0 2.0 3.0 -1 43
- 1.501 4 3 ping 64 ------- 0 2.0 3.0 -1 43
r 1.502003 4 3 ping 64 ------- 0 2.0 3.0 -1 43
+ 1.502003 3 4 ping 64 ------- 0 3.0 2.0 -1 44
- 1.502003 3 4 ping 64 ------- 0 3.0 2.0 -1 44
r 1.503005 3 4 ping 64 ------- 0 3.0 2.0 -1 44
+ 1.503005 4 2 ping 64 ------- 0 3.0 2.0 -1 44
- 1.503005 4 2 ping 64 ------- 0 3.0 2.0 -1 44
r 1.504006 4 2 ping 64 ------- 0 3.0 2.0 -1 44
r 1.540801 0 4 ping 5000000 ------- 0 0.0 5.0 -1 42
+ 1.540801 4 5 ping 5000000 ------- 0 0.0 5.0 -1 42
d 1.540801 4 5 ping 5000000 ------- 0 0.0 5.0 -1 42
+ 1.6 0 4 ping 5000000 ------- 0 0.0 5.0 -1 45
- 1.6 0 4 ping 5000000 ------- 0 0.0 5.0 -1 45
+ 1.6 2 4 ping 64 ------- 0 2.0 3.0 -1 46
- 1.6 2 4 ping 64 ------- 0 2.0 3.0 -1 46
r 1.601 2 4 ping 64 ------- 0 2.0 3.0 -1 46
+ 1.601 4 3 ping 64 ------- 0 2.0 3.0 -1 46
- 1.601 4 3 ping 64 ------- 0 2.0 3.0 -1 46
r 1.602003 4 3 ping 64 ------- 0 2.0 3.0 -1 46
+ 1.602003 3 4 ping 64 ------- 0 3.0 2.0 -1 47
- 1.602003 3 4 ping 64 ------- 0 3.0 2.0 -1 47
r 1.603005 3 4 ping 64 ------- 0 3.0 2.0 -1 47
+ 1.603005 4 2 ping 64 ------- 0 3.0 2.0 -1 47
- 1.603005 4 2 ping 64 ------- 0 3.0 2.0 -1 47
r 1.604006 4 2 ping 64 ------- 0 3.0 2.0 -1 47
r 1.640801 0 4 ping 5000000 ------- 0 0.0 5.0 -1 45
+ 1.640801 4 5 ping 5000000 ------- 0 0.0 5.0 -1 45
d 1.640801 4 5 ping 5000000 ------- 0 0.0 5.0 -1 45
+ 1.7 0 4 ping 5000000 ------- 0 0.0 5.0 -1 48
- 1.7 0 4 ping 5000000 ------- 0 0.0 5.0 -1 48
+ 1.7 2 4 ping 64 ------- 0 2.0 3.0 -1 49
- 1.7 2 4 ping 64 ------- 0 2.0 3.0 -1 49
r 1.701 2 4 ping 64 ------- 0 2.0 3.0 -1 49
+ 1.701 4 3 ping 64 ------- 0 2.0 3.0 -1 49
- 1.701 4 3 ping 64 ------- 0 2.0 3.0 -1 49
r 1.702003 4 3 ping 64 ------- 0 2.0 3.0 -1 49
+ 1.702003 3 4 ping 64 ------- 0 3.0 2.0 -1 50
- 1.702003 3 4 ping 64 ------- 0 3.0 2.0 -1 50
r 1.703005 3 4 ping 64 ------- 0 3.0 2.0 -1 50
+ 1.703005 4 2 ping 64 ------- 0 3.0 2.0 -1 50
- 1.703005 4 2 ping 64 ------- 0 3.0 2.0 -1 50
r 1.704006 4 2 ping 64 ------- 0 3.0 2.0 -1 50
r 1.740801 0 4 ping 5000000 ------- 0 0.0 5.0 -1 48
+ 1.740801 4 5 ping 5000000 ------- 0 0.0 5.0 -1 48
d 1.740801 4 5 ping 5000000 ------- 0 0.0 5.0 -1 48
+ 1.8 0 4 ping 5000000 ------- 0 0.0 5.0 -1 51
- 1.8 0 4 ping 5000000 ------- 0 0.0 5.0 -1 51
+ 1.8 2 4 ping 64 ------- 0 2.0 3.0 -1 52
- 1.8 2 4 ping 64 ------- 0 2.0 3.0 -1 52
r 1.801 2 4 ping 64 ------- 0 2.0 3.0 -1 52
+ 1.801 4 3 ping 64 ------- 0 2.0 3.0 -1 52
- 1.801 4 3 ping 64 ------- 0 2.0 3.0 -1 52
r 1.802003 4 3 ping 64 ------- 0 2.0 3.0 -1 52
+ 1.802003 3 4 ping 64 ------- 0 3.0 2.0 -1 53
- 1.802003 3 4 ping 64 ------- 0 3.0 2.0 -1 53
r 1.803005 3 4 ping 64 ------- 0 3.0 2.0 -1 53
+ 1.803005 4 2 ping 64 ------- 0 3.0 2.0 -1 53
- 1.803005 4 2 ping 64 ------- 0 3.0 2.0 -1 53
r 1.804006 4 2 ping 64 ------- 0 3.0 2.0 -1 53
r 1.840801 0 4 ping 5000000 ------- 0 0.0 5.0 -1 51
+ 1.840801 4 5 ping 5000000 ------- 0 0.0 5.0 -1 51
d 1.840801 4 5 ping 5000000 ------- 0 0.0 5.0 -1 51
+ 1.9 0 4 ping 5000000 ------- 0 0.0 5.0 -1 54
- 1.9 0 4 ping 5000000 ------- 0 0.0 5.0 -1 54
+ 1.9 2 4 ping 64 ------- 0 2.0 3.0 -1 55
- 1.9 2 4 ping 64 ------- 0 2.0 3.0 -1 55
r 1.901 2 4 ping 64 ------- 0 2.0 3.0 -1 55
+ 1.901 4 3 ping 64 ------- 0 2.0 3.0 -1 55
- 1.901 4 3 ping 64 ------- 0 2.0 3.0 -1 55
r 1.902003 4 3 ping 64 ------- 0 2.0 3.0 -1 55
+ 1.902003 3 4 ping 64 ------- 0 3.0 2.0 -1 56
- 1.902003 3 4 ping 64 ------- 0 3.0 2.0 -1 56
r 1.903005 3 4 ping 64 ------- 0 3.0 2.0 -1 56
+ 1.903005 4 2 ping 64 ------- 0 3.0 2.0 -1 56
- 1.903005 4 2 ping 64 ------- 0 3.0 2.0 -1 56
r 1.904006 4 2 ping 64 ------- 0 3.0 2.0 -1 56
r 1.940801 0 4 ping 5000000 ------- 0 0.0 5.0 -1 54
+ 1.940801 4 5 ping 5000000 ------- 0 0.0 5.0 -1 54
d 1.940801 4 5 ping 5000000 ------- 0 0.0 5.0 -1 54
+ 2 0 4 ping 5000000 ------- 0 0.0 5.0 -1 57
- 2 0 4 ping 5000000 ------- 0 0.0 5.0 -1 57
+ 2 0 4 ping 5000000 ------- 0 0.0 5.0 -1 58
+ 2 2 4 ping 64 ------- 0 2.0 3.0 -1 59
- 2 2 4 ping 64 ------- 0 2.0 3.0 -1 59
+ 2 2 4 ping 64 ------- 0 2.0 3.0 -1 60
- 2 2 4 ping 64 ------- 0 2.0 3.0 -1 60
r 2.001 2 4 ping 64 ------- 0 2.0 3.0 -1 59
+ 2.001 4 3 ping 64 ------- 0 2.0 3.0 -1 59
- 2.001 4 3 ping 64 ------- 0 2.0 3.0 -1 59
r 2.001001 2 4 ping 64 ------- 0 2.0 3.0 -1 60
+ 2.001001 4 3 ping 64 ------- 0 2.0 3.0 -1 60
- 2.001003 4 3 ping 64 ------- 0 2.0 3.0 -1 60
r 2.002003 4 3 ping 64 ------- 0 2.0 3.0 -1 59
+ 2.002003 3 4 ping 64 ------- 0 3.0 2.0 -1 61
- 2.002003 3 4 ping 64 ------- 0 3.0 2.0 -1 61
r 2.002005 4 3 ping 64 ------- 0 2.0 3.0 -1 60
+ 2.002005 3 4 ping 64 ------- 0 3.0 2.0 -1 62
- 2.002005 3 4 ping 64 ------- 0 3.0 2.0 -1 62
r 2.003005 3 4 ping 64 ------- 0 3.0 2.0 -1 61
+ 2.003005 4 2 ping 64 ------- 0 3.0 2.0 -1 61
- 2.003005 4 2 ping 64 ------- 0 3.0 2.0 -1 61
r 2.003008 3 4 ping 64 ------- 0 3.0 2.0 -1 62
+ 2.003008 4 2 ping 64 ------- 0 3.0 2.0 -1 62
- 2.003008 4 2 ping 64 ------- 0 3.0 2.0 -1 62
r 2.004006 4 2 ping 64 ------- 0 3.0 2.0 -1 61
r 2.004008 4 2 ping 64 ------- 0 3.0 2.0 -1 62
- 2.039801 0 4 ping 5000000 ------- 0 0.0 5.0 -1 58
r 2.040801 0 4 ping 5000000 ------- 0 0.0 5.0 -1 57
+ 2.040801 4 5 ping 5000000 ------- 0 0.0 5.0 -1 57
d 2.040801 4 5 ping 5000000 ------- 0 0.0 5.0 -1 57
r 2.080602 0 4 ping 5000000 ------- 0 0.0 5.0 -1 58
+ 2.080602 4 5 ping 5000000 ------- 0 0.0 5.0 -1 58
d 2.080602 4 5 ping 5000000 ------- 0 0.0 5.0 -1 58
+ 2.1 0 4 ping 5000000 ------- 0 0.0 5.0 -1 63
- 2.1 0 4 ping 5000000 ------- 0 0.0 5.0 -1 63
+ 2.1 2 4 ping 64 ------- 0 2.0 3.0 -1 64
- 2.1 2 4 ping 64 ------- 0 2.0 3.0 -1 64
r 2.101 2 4 ping 64 ------- 0 2.0 3.0 -1 64
+ 2.101 4 3 ping 64 ------- 0 2.0 3.0 -1 64
- 2.101 4 3 ping 64 ------- 0 2.0 3.0 -1 64
r 2.102003 4 3 ping 64 ------- 0 2.0 3.0 -1 64
+ 2.102003 3 4 ping 64 ------- 0 3.0 2.0 -1 65
- 2.102003 3 4 ping 64 ------- 0 3.0 2.0 -1 65
r 2.103005 3 4 ping 64 ------- 0 3.0 2.0 -1 65
+ 2.103005 4 2 ping 64 ------- 0 3.0 2.0 -1 65
- 2.103005 4 2 ping 64 ------- 0 3.0 2.0 -1 65
r 2.104006 4 2 ping 64 ------- 0 3.0 2.0 -1 65
r 2.140801 0 4 ping 5000000 ------- 0 0.0 5.0 -1 63
+ 2.140801 4 5 ping 5000000 ------- 0 0.0 5.0 -1 63
d 2.140801 4 5 ping 5000000 ------- 0 0.0 5.0 -1 63
+ 2.2 0 4 ping 5000000 ------- 0 0.0 5.0 -1 66
- 2.2 0 4 ping 5000000 ------- 0 0.0 5.0 -1 66
+ 2.2 2 4 ping 64 ------- 0 2.0 3.0 -1 67
- 2.2 2 4 ping 64 ------- 0 2.0 3.0 -1 67
r 2.201 2 4 ping 64 ------- 0 2.0 3.0 -1 67
+ 2.201 4 3 ping 64 ------- 0 2.0 3.0 -1 67
- 2.201 4 3 ping 64 ------- 0 2.0 3.0 -1 67
r 2.202003 4 3 ping 64 ------- 0 2.0 3.0 -1 67
+ 2.202003 3 4 ping 64 ------- 0 3.0 2.0 -1 68
- 2.202003 3 4 ping 64 ------- 0 3.0 2.0 -1 68
r 2.203005 3 4 ping 64 ------- 0 3.0 2.0 -1 68
+ 2.203005 4 2 ping 64 ------- 0 3.0 2.0 -1 68
- 2.203005 4 2 ping 64 ------- 0 3.0 2.0 -1 68
r 2.204006 4 2 ping 64 ------- 0 3.0 2.0 -1 68
r 2.240801 0 4 ping 5000000 ------- 0 0.0 5.0 -1 66
+ 2.240801 4 5 ping 5000000 ------- 0 0.0 5.0 -1 66
d 2.240801 4 5 ping 5000000 ------- 0 0.0 5.0 -1 66
+ 2.3 0 4 ping 5000000 ------- 0 0.0 5.0 -1 69
- 2.3 0 4 ping 5000000 ------- 0 0.0 5.0 -1 69
+ 2.3 2 4 ping 64 ------- 0 2.0 3.0 -1 70
- 2.3 2 4 ping 64 ------- 0 2.0 3.0 -1 70
r 2.301 2 4 ping 64 ------- 0 2.0 3.0 -1 70
+ 2.301 4 3 ping 64 ------- 0 2.0 3.0 -1 70
- 2.301 4 3 ping 64 ------- 0 2.0 3.0 -1 70
r 2.302003 4 3 ping 64 ------- 0 2.0 3.0 -1 70
+ 2.302003 3 4 ping 64 ------- 0 3.0 2.0 -1 71
- 2.302003 3 4 ping 64 ------- 0 3.0 2.0 -1 71
r 2.303005 3 4 ping 64 ------- 0 3.0 2.0 -1 71
+ 2.303005 4 2 ping 64 ------- 0 3.0 2.0 -1 71
- 2.303005 4 2 ping 64 ------- 0 3.0 2.0 -1 71
r 2.304006 4 2 ping 64 ------- 0 3.0 2.0 -1 71
r 2.340801 0 4 ping 5000000 ------- 0 0.0 5.0 -1 69
+ 2.340801 4 5 ping 5000000 ------- 0 0.0 5.0 -1 69
d 2.340801 4 5 ping 5000000 ------- 0 0.0 5.0 -1 69
+ 2.4 0 4 ping 5000000 ------- 0 0.0 5.0 -1 72
- 2.4 0 4 ping 5000000 ------- 0 0.0 5.0 -1 72
+ 2.4 2 4 ping 64 ------- 0 2.0 3.0 -1 73
- 2.4 2 4 ping 64 ------- 0 2.0 3.0 -1 73
r 2.401 2 4 ping 64 ------- 0 2.0 3.0 -1 73
+ 2.401 4 3 ping 64 ------- 0 2.0 3.0 -1 73
- 2.401 4 3 ping 64 ------- 0 2.0 3.0 -1 73
r 2.402003 4 3 ping 64 ------- 0 2.0 3.0 -1 73
+ 2.402003 3 4 ping 64 ------- 0 3.0 2.0 -1 74
- 2.402003 3 4 ping 64 ------- 0 3.0 2.0 -1 74
r 2.403005 3 4 ping 64 ------- 0 3.0 2.0 -1 74
+ 2.403005 4 2 ping 64 ------- 0 3.0 2.0 -1 74
- 2.403005 4 2 ping 64 ------- 0 3.0 2.0 -1 74
r 2.404006 4 2 ping 64 ------- 0 3.0 2.0 -1 74
r 2.440801 0 4 ping 5000000 ------- 0 0.0 5.0 -1 72
+ 2.440801 4 5 ping 5000000 ------- 0 0.0 5.0 -1 72
d 2.440801 4 5 ping 5000000 ------- 0 0.0 5.0 -1 72
+ 2.5 0 4 ping 5000000 ------- 0 0.0 5.0 -1 75
- 2.5 0 4 ping 5000000 ------- 0 0.0 5.0 -1 75
+ 2.5 2 4 ping 64 ------- 0 2.0 3.0 -1 76
- 2.5 2 4 ping 64 ------- 0 2.0 3.0 -1 76
r 2.501 2 4 ping 64 ------- 0 2.0 3.0 -1 76
+ 2.501 4 3 ping 64 ------- 0 2.0 3.0 -1 76
- 2.501 4 3 ping 64 ------- 0 2.0 3.0 -1 76
r 2.502003 4 3 ping 64 ------- 0 2.0 3.0 -1 76
+ 2.502003 3 4 ping 64 ------- 0 3.0 2.0 -1 77
- 2.502003 3 4 ping 64 ------- 0 3.0 2.0 -1 77
r 2.503005 3 4 ping 64 ------- 0 3.0 2.0 -1 77
+ 2.503005 4 2 ping 64 ------- 0 3.0 2.0 -1 77
- 2.503005 4 2 ping 64 ------- 0 3.0 2.0 -1 77
r 2.504006 4 2 ping 64 ------- 0 3.0 2.0 -1 77
r 2.540801 0 4 ping 5000000 ------- 0 0.0 5.0 -1 75
+ 2.540801 4 5 ping 5000000 ------- 0 0.0 5.0 -1 75
d 2.540801 4 5 ping 5000000 ------- 0 0.0 5.0 -1 75
+ 2.6 0 4 ping 5000000 ------- 0 0.0 5.0 -1 78
- 2.6 0 4 ping 5000000 ------- 0 0.0 5.0 -1 78
+ 2.6 2 4 ping 64 ------- 0 2.0 3.0 -1 79
- 2.6 2 4 ping 64 ------- 0 2.0 3.0 -1 79
r 2.601 2 4 ping 64 ------- 0 2.0 3.0 -1 79
+ 2.601 4 3 ping 64 ------- 0 2.0 3.0 -1 79
- 2.601 4 3 ping 64 ------- 0 2.0 3.0 -1 79
r 2.602003 4 3 ping 64 ------- 0 2.0 3.0 -1 79
+ 2.602003 3 4 ping 64 ------- 0 3.0 2.0 -1 80
- 2.602003 3 4 ping 64 ------- 0 3.0 2.0 -1 80
r 2.603005 3 4 ping 64 ------- 0 3.0 2.0 -1 80
+ 2.603005 4 2 ping 64 ------- 0 3.0 2.0 -1 80
- 2.603005 4 2 ping 64 ------- 0 3.0 2.0 -1 80
r 2.604006 4 2 ping 64 ------- 0 3.0 2.0 -1 80
r 2.640801 0 4 ping 5000000 ------- 0 0.0 5.0 -1 78
+ 2.640801 4 5 ping 5000000 ------- 0 0.0 5.0 -1 78
d 2.640801 4 5 ping 5000000 ------- 0 0.0 5.0 -1 78
+ 2.7 0 4 ping 5000000 ------- 0 0.0 5.0 -1 81
- 2.7 0 4 ping 5000000 ------- 0 0.0 5.0 -1 81
+ 2.7 2 4 ping 64 ------- 0 2.0 3.0 -1 82
- 2.7 2 4 ping 64 ------- 0 2.0 3.0 -1 82
r 2.701 2 4 ping 64 ------- 0 2.0 3.0 -1 82
+ 2.701 4 3 ping 64 ------- 0 2.0 3.0 -1 82
- 2.701 4 3 ping 64 ------- 0 2.0 3.0 -1 82
r 2.702003 4 3 ping 64 ------- 0 2.0 3.0 -1 82
+ 2.702003 3 4 ping 64 ------- 0 3.0 2.0 -1 83
- 2.702003 3 4 ping 64 ------- 0 3.0 2.0 -1 83
r 2.703005 3 4 ping 64 ------- 0 3.0 2.0 -1 83
+ 2.703005 4 2 ping 64 ------- 0 3.0 2.0 -1 83
- 2.703005 4 2 ping 64 ------- 0 3.0 2.0 -1 83
r 2.704006 4 2 ping 64 ------- 0 3.0 2.0 -1 83
r 2.740801 0 4 ping 5000000 ------- 0 0.0 5.0 -1 81
+ 2.740801 4 5 ping 5000000 ------- 0 0.0 5.0 -1 81
d 2.740801 4 5 ping 5000000 ------- 0 0.0 5.0 -1 81
+ 2.8 0 4 ping 5000000 ------- 0 0.0 5.0 -1 84
- 2.8 0 4 ping 5000000 ------- 0 0.0 5.0 -1 84
+ 2.8 2 4 ping 64 ------- 0 2.0 3.0 -1 85
- 2.8 2 4 ping 64 ------- 0 2.0 3.0 -1 85
r 2.801 2 4 ping 64 ------- 0 2.0 3.0 -1 85
+ 2.801 4 3 ping 64 ------- 0 2.0 3.0 -1 85
- 2.801 4 3 ping 64 ------- 0 2.0 3.0 -1 85
r 2.802003 4 3 ping 64 ------- 0 2.0 3.0 -1 85
+ 2.802003 3 4 ping 64 ------- 0 3.0 2.0 -1 86
- 2.802003 3 4 ping 64 ------- 0 3.0 2.0 -1 86
r 2.803005 3 4 ping 64 ------- 0 3.0 2.0 -1 86
+ 2.803005 4 2 ping 64 ------- 0 3.0 2.0 -1 86
- 2.803005 4 2 ping 64 ------- 0 3.0 2.0 -1 86
r 2.804006 4 2 ping 64 ------- 0 3.0 2.0 -1 86
r 2.840801 0 4 ping 5000000 ------- 0 0.0 5.0 -1 84
+ 2.840801 4 5 ping 5000000 ------- 0 0.0 5.0 -1 84
d 2.840801 4 5 ping 5000000 ------- 0 0.0 5.0 -1 84
+ 2.9 0 4 ping 5000000 ------- 0 0.0 5.0 -1 87
- 2.9 0 4 ping 5000000 ------- 0 0.0 5.0 -1 87
+ 2.9 2 4 ping 64 ------- 0 2.0 3.0 -1 88
- 2.9 2 4 ping 64 ------- 0 2.0 3.0 -1 88
r 2.901 2 4 ping 64 ------- 0 2.0 3.0 -1 88
+ 2.901 4 3 ping 64 ------- 0 2.0 3.0 -1 88
- 2.901 4 3 ping 64 ------- 0 2.0 3.0 -1 88
r 2.902003 4 3 ping 64 ------- 0 2.0 3.0 -1 88
+ 2.902003 3 4 ping 64 ------- 0 3.0 2.0 -1 89
- 2.902003 3 4 ping 64 ------- 0 3.0 2.0 -1 89
r 2.903005 3 4 ping 64 ------- 0 3.0 2.0 -1 89
+ 2.903005 4 2 ping 64 ------- 0 3.0 2.0 -1 89
- 2.903005 4 2 ping 64 ------- 0 3.0 2.0 -1 89
r 2.904006 4 2 ping 64 ------- 0 3.0 2.0 -1 89
r 2.940801 0 4 ping 5000000 ------- 0 0.0 5.0 -1 87
+ 2.940801 4 5 ping 5000000 ------- 0 0.0 5.0 -1 87
d 2.940801 4 5 ping 5000000 ------- 0 0.0 5.0 -1 87
