V -t * -v 1.0a5 -a 0
A -t * -n 1 -p 0 -o 0x7fffffff -c 30 -a 1
A -t * -h 1 -m 1073741823 -s 0
n -t * -a 4 -s 4 -S UP -v circle -c black -i black
n -t * -a 0 -s 0 -S UP -v circle -c black -i black
n -t * -a 5 -s 5 -S UP -v circle -c black -i black
n -t * -a 1 -s 1 -S UP -v circle -c black -i black
n -t * -a 2 -s 2 -S UP -v circle -c black -i black
n -t * -a 3 -s 3 -S UP -v circle -c black -i black
l -t * -s 4 -d 5 -S UP -r 100000000 -D 0.10000000000000001 -c black
X -t * -n 6 -r 100Mb -D 100ms -o left
L -t * -s 6 -d 0 -o up
L -t * -s 6 -d 1 -o down
L -t * -s 6 -d 2 -o up
L -t * -s 6 -d 3 -o down
L -t * -s 6 -d 4 -o up
h -t 0.1 -s 0 -d 6 -p tcp -e 40 -c 0 -i 0 -a 0 -x {0.0 3.0 0 ------- null}
h -t 0.2 -s 2 -d 6 -p tcp -e 40 -c 0 -i 1 -a 0 -x {2.0 5.0 0 ------- null}
+ -t 0.2 -s 0 -d 6 -p tcp -e 40 -c 0 -i 0 -a 0 -x {0.0 3.0 0 ------- null}
- -t 0.2 -s 0 -d 6 -p tcp -e 40 -c 0 -i 0 -a 0 -x {0.0 3.0 0 ------- null}
h -t 0.2 -s 0 -d 6 -p tcp -e 40 -c 0 -i 0 -a 0 -x {0.0 3.0 -1 ------- null}
+ -t 0.3 -s 2 -d 6 -p tcp -e 40 -c 0 -i 1 -a 0 -x {2.0 5.0 0 ------- null}
- -t 0.3 -s 2 -d 6 -p tcp -e 40 -c 0 -i 1 -a 0 -x {2.0 5.0 0 ------- null}
h -t 0.3 -s 2 -d 6 -p tcp -e 40 -c 0 -i 1 -a 0 -x {2.0 5.0 -1 ------- null}
r -t 0.30000912 -s 6 -d 3 -p tcp -e 40 -c 0 -i 0 -a 0 -x {0.0 3.0 0 ------- null}
h -t 0.30000912 -s 3 -d 6 -p ack -e 40 -c 0 -i 2 -a 0 -x {3.0 0.0 0 ------- null}
+ -t 0.40000912 -s 3 -d 6 -p ack -e 40 -c 0 -i 2 -a 0 -x {3.0 0.0 0 ------- null}
- -t 0.40000912 -s 3 -d 6 -p ack -e 40 -c 0 -i 2 -a 0 -x {3.0 0.0 0 ------- null}
h -t 0.40000912 -s 3 -d 6 -p ack -e 40 -c 0 -i 2 -a 0 -x {3.0 0.0 -1 ------- null}
r -t 0.40000912 -s 6 -d 4 -p tcp -e 40 -c 0 -i 1 -a 0 -x {2.0 5.0 0 ------- null}
+ -t 0.40000912 -s 4 -d 5 -p tcp -e 40 -c 0 -i 1 -a 0 -x {2.0 5.0 0 ------- null}
- -t 0.40000912 -s 4 -d 5 -p tcp -e 40 -c 0 -i 1 -a 0 -x {2.0 5.0 0 ------- null}
h -t 0.40000912 -s 4 -d 5 -p tcp -e 40 -c 0 -i 1 -a 0 -x {2.0 5.0 -1 ------- null}
r -t 0.50001232 -s 4 -d 5 -p tcp -e 40 -c 0 -i 1 -a 0 -x {2.0 5.0 0 ------- null}
+ -t 0.50001232 -s 5 -d 4 -p ack -e 40 -c 0 -i 3 -a 0 -x {5.0 2.0 0 ------- null}
- -t 0.50001232 -s 5 -d 4 -p ack -e 40 -c 0 -i 3 -a 0 -x {5.0 2.0 0 ------- null}
h -t 0.50001232 -s 5 -d 4 -p ack -e 40 -c 0 -i 3 -a 0 -x {5.0 2.0 -1 ------- null}
r -t 0.50001824 -s 6 -d 0 -p ack -e 40 -c 0 -i 2 -a 0 -x {3.0 0.0 0 ------- null}
h -t 0.50001824 -s 0 -d 6 -p tcp -e 1040 -c 0 -i 4 -a 0 -x {0.0 3.0 1 ------- null}
h -t 0.50001824 -s 0 -d 6 -p tcp -e 1040 -c 0 -i 5 -a 0 -x {0.0 3.0 2 ------- null}
r -t 0.60001552 -s 5 -d 4 -p ack -e 40 -c 0 -i 3 -a 0 -x {5.0 2.0 0 ------- null}
h -t 0.60001552 -s 4 -d 6 -p ack -e 40 -c 0 -i 3 -a 0 -x {5.0 2.0 0 ------- null}
+ -t 0.60001824 -s 0 -d 6 -p tcp -e 1040 -c 0 -i 4 -a 0 -x {0.0 3.0 1 ------- null}
- -t 0.60001824 -s 0 -d 6 -p tcp -e 1040 -c 0 -i 4 -a 0 -x {0.0 3.0 1 ------- null}
h -t 0.60001824 -s 0 -d 6 -p tcp -e 1040 -c 0 -i 4 -a 0 -x {0.0 3.0 -1 ------- null}
+ -t 0.60001824 -s 0 -d 6 -p tcp -e 1040 -c 0 -i 5 -a 0 -x {0.0 3.0 2 ------- null}
- -t 0.60010352 -s 0 -d 6 -p tcp -e 1040 -c 0 -i 5 -a 0 -x {0.0 3.0 2 ------- null}
h -t 0.60010352 -s 0 -d 6 -p tcp -e 1040 -c 0 -i 5 -a 0 -x {0.0 3.0 -1 ------- null}
+ -t 0.70001552 -s 4 -d 6 -p ack -e 40 -c 0 -i 3 -a 0 -x {5.0 2.0 0 ------- null}
- -t 0.70001552 -s 4 -d 6 -p ack -e 40 -c 0 -i 3 -a 0 -x {5.0 2.0 0 ------- null}
h -t 0.70001552 -s 4 -d 6 -p ack -e 40 -c 0 -i 3 -a 0 -x {5.0 2.0 -1 ------- null}
r -t 0.70010656 -s 6 -d 3 -p tcp -e 1040 -c 0 -i 4 -a 0 -x {0.0 3.0 1 ------- null}
h -t 0.70010656 -s 3 -d 6 -p ack -e 40 -c 0 -i 6 -a 0 -x {3.0 0.0 1 ------- null}
r -t 0.70019184 -s 6 -d 3 -p tcp -e 1040 -c 0 -i 5 -a 0 -x {0.0 3.0 2 ------- null}
h -t 0.70019184 -s 3 -d 6 -p ack -e 40 -c 0 -i 7 -a 0 -x {3.0 0.0 2 ------- null}
r -t 0.80002464 -s 6 -d 2 -p ack -e 40 -c 0 -i 3 -a 0 -x {5.0 2.0 0 ------- null}
h -t 0.80002464 -s 2 -d 6 -p tcp -e 1040 -c 0 -i 8 -a 0 -x {2.0 5.0 1 ------- null}
h -t 0.80002464 -s 2 -d 6 -p tcp -e 1040 -c 0 -i 9 -a 0 -x {2.0 5.0 2 ------- null}
+ -t 0.80010656 -s 3 -d 6 -p ack -e 40 -c 0 -i 6 -a 0 -x {3.0 0.0 1 ------- null}
- -t 0.80010656 -s 3 -d 6 -p ack -e 40 -c 0 -i 6 -a 0 -x {3.0 0.0 1 ------- null}
h -t 0.80010656 -s 3 -d 6 -p ack -e 40 -c 0 -i 6 -a 0 -x {3.0 0.0 -1 ------- null}
+ -t 0.80019184 -s 3 -d 6 -p ack -e 40 -c 0 -i 7 -a 0 -x {3.0 0.0 2 ------- null}
- -t 0.80019184 -s 3 -d 6 -p ack -e 40 -c 0 -i 7 -a 0 -x {3.0 0.0 2 ------- null}
h -t 0.80019184 -s 3 -d 6 -p ack -e 40 -c 0 -i 7 -a 0 -x {3.0 0.0 -1 ------- null}
+ -t 0.90002464 -s 2 -d 6 -p tcp -e 1040 -c 0 -i 8 -a 0 -x {2.0 5.0 1 ------- null}
- -t 0.90002464 -s 2 -d 6 -p tcp -e 1040 -c 0 -i 8 -a 0 -x {2.0 5.0 1 ------- null}
h -t 0.90002464 -s 2 -d 6 -p tcp -e 1040 -c 0 -i 8 -a 0 -x {2.0 5.0 -1 ------- null}
+ -t 0.90002464 -s 2 -d 6 -p tcp -e 1040 -c 0 -i 9 -a 0 -x {2.0 5.0 2 ------- null}
- -t 0.90010992 -s 2 -d 6 -p tcp -e 1040 -c 0 -i 9 -a 0 -x {2.0 5.0 2 ------- null}
h -t 0.90010992 -s 2 -d 6 -p tcp -e 1040 -c 0 -i 9 -a 0 -x {2.0 5.0 -1 ------- null}
r -t 0.90011568 -s 6 -d 0 -p ack -e 40 -c 0 -i 6 -a 0 -x {3.0 0.0 1 ------- null}
h -t 0.90011568 -s 0 -d 6 -p tcp -e 1040 -c 0 -i 10 -a 0 -x {0.0 3.0 3 ------- null}
h -t 0.90011568 -s 0 -d 6 -p tcp -e 1040 -c 0 -i 11 -a 0 -x {0.0 3.0 4 ------- null}
r -t 0.90020096 -s 6 -d 0 -p ack -e 40 -c 0 -i 7 -a 0 -x {3.0 0.0 2 ------- null}
h -t 0.90020096 -s 0 -d 6 -p tcp -e 1040 -c 0 -i 12 -a 0 -x {0.0 3.0 5 ------- null}
h -t 0.90020096 -s 0 -d 6 -p tcp -e 1040 -c 0 -i 13 -a 0 -x {0.0 3.0 6 ------- null}
r -t 1.00011296 -s 6 -d 4 -p tcp -e 1040 -c 0 -i 8 -a 0 -x {2.0 5.0 1 ------- null}
+ -t 1.00011296 -s 4 -d 5 -p tcp -e 1040 -c 0 -i 8 -a 0 -x {2.0 5.0 1 ------- null}
- -t 1.00011296 -s 4 -d 5 -p tcp -e 1040 -c 0 -i 8 -a 0 -x {2.0 5.0 1 ------- null}
h -t 1.00011296 -s 4 -d 5 -p tcp -e 1040 -c 0 -i 8 -a 0 -x {2.0 5.0 -1 ------- null}
+ -t 1.00011568 -s 0 -d 6 -p tcp -e 1040 -c 0 -i 10 -a 0 -x {0.0 3.0 3 ------- null}
- -t 1.00011568 -s 0 -d 6 -p tcp -e 1040 -c 0 -i 10 -a 0 -x {0.0 3.0 3 ------- null}
h -t 1.00011568 -s 0 -d 6 -p tcp -e 1040 -c 0 -i 10 -a 0 -x {0.0 3.0 -1 ------- null}
+ -t 1.00011568 -s 0 -d 6 -p tcp -e 1040 -c 0 -i 11 -a 0 -x {0.0 3.0 4 ------- null}
r -t 1.00019824 -s 6 -d 4 -p tcp -e 1040 -c 0 -i 9 -a 0 -x {2.0 5.0 2 ------- null}
+ -t 1.00019824 -s 4 -d 5 -p tcp -e 1040 -c 0 -i 9 -a 0 -x {2.0 5.0 2 ------- null}
- -t 1.00019824 -s 4 -d 5 -p tcp -e 1040 -c 0 -i 9 -a 0 -x {2.0 5.0 2 ------- null}
h -t 1.00019824 -s 4 -d 5 -p tcp -e 1040 -c 0 -i 9 -a 0 -x {2.0 5.0 -1 ------- null}
- -t 1.00020096 -s 0 -d 6 -p tcp -e 1040 -c 0 -i 11 -a 0 -x {0.0 3.0 4 ------- null}
h -t 1.00020096 -s 0 -d 6 -p tcp -e 1040 -c 0 -i 11 -a 0 -x {0.0 3.0 -1 ------- null}
+ -t 1.00020096 -s 0 -d 6 -p tcp -e 1040 -c 0 -i 12 -a 0 -x {0.0 3.0 5 ------- null}
+ -t 1.00020096 -s 0 -d 6 -p tcp -e 1040 -c 0 -i 13 -a 0 -x {0.0 3.0 6 ------- null}
- -t 1.00028624 -s 0 -d 6 -p tcp -e 1040 -c 0 -i 12 -a 0 -x {0.0 3.0 5 ------- null}
h -t 1.00028624 -s 0 -d 6 -p tcp -e 1040 -c 0 -i 12 -a 0 -x {0.0 3.0 -1 ------- null}
- -t 1.00037152 -s 0 -d 6 -p tcp -e 1040 -c 0 -i 13 -a 0 -x {0.0 3.0 6 ------- null}
h -t 1.00037152 -s 0 -d 6 -p tcp -e 1040 -c 0 -i 13 -a 0 -x {0.0 3.0 -1 ------- null}
r -t 1.10019616 -s 4 -d 5 -p tcp -e 1040 -c 0 -i 8 -a 0 -x {2.0 5.0 1 ------- null}
+ -t 1.10019616 -s 5 -d 4 -p ack -e 40 -c 0 -i 14 -a 0 -x {5.0 2.0 1 ------- null}
- -t 1.10019616 -s 5 -d 4 -p ack -e 40 -c 0 -i 14 -a 0 -x {5.0 2.0 1 ------- null}
h -t 1.10019616 -s 5 -d 4 -p ack -e 40 -c 0 -i 14 -a 0 -x {5.0 2.0 -1 ------- null}
r -t 1.100204 -s 6 -d 3 -p tcp -e 1040 -c 0 -i 10 -a 0 -x {0.0 3.0 3 ------- null}
h -t 1.100204 -s 3 -d 6 -p ack -e 40 -c 0 -i 15 -a 0 -x {3.0 0.0 3 ------- null}
r -t 1.10028144 -s 4 -d 5 -p tcp -e 1040 -c 0 -i 9 -a 0 -x {2.0 5.0 2 ------- null}
+ -t 1.10028144 -s 5 -d 4 -p ack -e 40 -c 0 -i 16 -a 0 -x {5.0 2.0 2 ------- null}
- -t 1.10028144 -s 5 -d 4 -p ack -e 40 -c 0 -i 16 -a 0 -x {5.0 2.0 2 ------- null}
h -t 1.10028144 -s 5 -d 4 -p ack -e 40 -c 0 -i 16 -a 0 -x {5.0 2.0 -1 ------- null}
r -t 1.10028928 -s 6 -d 3 -p tcp -e 1040 -c 0 -i 11 -a 0 -x {0.0 3.0 4 ------- null}
h -t 1.10028928 -s 3 -d 6 -p ack -e 40 -c 0 -i 17 -a 0 -x {3.0 0.0 4 ------- null}
r -t 1.10037456 -s 6 -d 3 -p tcp -e 1040 -c 0 -i 12 -a 0 -x {0.0 3.0 5 ------- null}
h -t 1.10037456 -s 3 -d 6 -p ack -e 40 -c 0 -i 18 -a 0 -x {3.0 0.0 5 ------- null}
r -t 1.10045984 -s 6 -d 3 -p tcp -e 1040 -c 0 -i 13 -a 0 -x {0.0 3.0 6 ------- null}
h -t 1.10045984 -s 3 -d 6 -p ack -e 40 -c 0 -i 19 -a 0 -x {3.0 0.0 6 ------- null}
r -t 1.20019936 -s 5 -d 4 -p ack -e 40 -c 0 -i 14 -a 0 -x {5.0 2.0 1 ------- null}
h -t 1.20019936 -s 4 -d 6 -p ack -e 40 -c 0 -i 14 -a 0 -x {5.0 2.0 1 ------- null}
+ -t 1.200204 -s 3 -d 6 -p ack -e 40 -c 0 -i 15 -a 0 -x {3.0 0.0 3 ------- null}
- -t 1.200204 -s 3 -d 6 -p ack -e 40 -c 0 -i 15 -a 0 -x {3.0 0.0 3 ------- null}
h -t 1.200204 -s 3 -d 6 -p ack -e 40 -c 0 -i 15 -a 0 -x {3.0 0.0 -1 ------- null}
r -t 1.20028464 -s 5 -d 4 -p ack -e 40 -c 0 -i 16 -a 0 -x {5.0 2.0 2 ------- null}
h -t 1.20028464 -s 4 -d 6 -p ack -e 40 -c 0 -i 16 -a 0 -x {5.0 2.0 2 ------- null}
+ -t 1.20028928 -s 3 -d 6 -p ack -e 40 -c 0 -i 17 -a 0 -x {3.0 0.0 4 ------- null}
- -t 1.20028928 -s 3 -d 6 -p ack -e 40 -c 0 -i 17 -a 0 -x {3.0 0.0 4 ------- null}
h -t 1.20028928 -s 3 -d 6 -p ack -e 40 -c 0 -i 17 -a 0 -x {3.0 0.0 -1 ------- null}
+ -t 1.20037456 -s 3 -d 6 -p ack -e 40 -c 0 -i 18 -a 0 -x {3.0 0.0 5 ------- null}
- -t 1.20037456 -s 3 -d 6 -p ack -e 40 -c 0 -i 18 -a 0 -x {3.0 0.0 5 ------- null}
h -t 1.20037456 -s 3 -d 6 -p ack -e 40 -c 0 -i 18 -a 0 -x {3.0 0.0 -1 ------- null}
+ -t 1.20045984 -s 3 -d 6 -p ack -e 40 -c 0 -i 19 -a 0 -x {3.0 0.0 6 ------- null}
- -t 1.20045984 -s 3 -d 6 -p ack -e 40 -c 0 -i 19 -a 0 -x {3.0 0.0 6 ------- null}
h -t 1.20045984 -s 3 -d 6 -p ack -e 40 -c 0 -i 19 -a 0 -x {3.0 0.0 -1 ------- null}
+ -t 1.30019936 -s 4 -d 6 -p ack -e 40 -c 0 -i 14 -a 0 -x {5.0 2.0 1 ------- null}
- -t 1.30019936 -s 4 -d 6 -p ack -e 40 -c 0 -i 14 -a 0 -x {5.0 2.0 1 ------- null}
h -t 1.30019936 -s 4 -d 6 -p ack -e 40 -c 0 -i 14 -a 0 -x {5.0 2.0 -1 ------- null}
r -t 1.30021312 -s 6 -d 0 -p ack -e 40 -c 0 -i 15 -a 0 -x {3.0 0.0 3 ------- null}
h -t 1.30021312 -s 0 -d 6 -p tcp -e 1040 -c 0 -i 20 -a 0 -x {0.0 3.0 7 ------- null}
h -t 1.30021312 -s 0 -d 6 -p tcp -e 1040 -c 0 -i 21 -a 0 -x {0.0 3.0 8 ------- null}
+ -t 1.30028464 -s 4 -d 6 -p ack -e 40 -c 0 -i 16 -a 0 -x {5.0 2.0 2 ------- null}
- -t 1.30028464 -s 4 -d 6 -p ack -e 40 -c 0 -i 16 -a 0 -x {5.0 2.0 2 ------- null}
h -t 1.30028464 -s 4 -d 6 -p ack -e 40 -c 0 -i 16 -a 0 -x {5.0 2.0 -1 ------- null}
r -t 1.3002984 -s 6 -d 0 -p ack -e 40 -c 0 -i 17 -a 0 -x {3.0 0.0 4 ------- null}
h -t 1.3002984 -s 0 -d 6 -p tcp -e 1040 -c 0 -i 22 -a 0 -x {0.0 3.0 9 ------- null}
h -t 1.3002984 -s 0 -d 6 -p tcp -e 1040 -c 0 -i 23 -a 0 -x {0.0 3.0 10 ------- null}
r -t 1.30038368 -s 6 -d 0 -p ack -e 40 -c 0 -i 18 -a 0 -x {3.0 0.0 5 ------- null}
h -t 1.30038368 -s 0 -d 6 -p tcp -e 1040 -c 0 -i 24 -a 0 -x {0.0 3.0 11 ------- null}
h -t 1.30038368 -s 0 -d 6 -p tcp -e 1040 -c 0 -i 25 -a 0 -x {0.0 3.0 12 ------- null}
r -t 1.30046896 -s 6 -d 0 -p ack -e 40 -c 0 -i 19 -a 0 -x {3.0 0.0 6 ------- null}
h -t 1.30046896 -s 0 -d 6 -p tcp -e 1040 -c 0 -i 26 -a 0 -x {0.0 3.0 13 ------- null}
h -t 1.30046896 -s 0 -d 6 -p tcp -e 1040 -c 0 -i 27 -a 0 -x {0.0 3.0 14 ------- null}
r -t 1.40020848 -s 6 -d 2 -p ack -e 40 -c 0 -i 14 -a 0 -x {5.0 2.0 1 ------- null}
h -t 1.40020848 -s 2 -d 6 -p tcp -e 1040 -c 0 -i 28 -a 0 -x {2.0 5.0 3 ------- null}
h -t 1.40020848 -s 2 -d 6 -p tcp -e 1040 -c 0 -i 29 -a 0 -x {2.0 5.0 4 ------- null}
+ -t 1.40021312 -s 0 -d 6 -p tcp -e 1040 -c 0 -i 20 -a 0 -x {0.0 3.0 7 ------- null}
- -t 1.40021312 -s 0 -d 6 -p tcp -e 1040 -c 0 -i 20 -a 0 -x {0.0 3.0 7 ------- null}
h -t 1.40021312 -s 0 -d 6 -p tcp -e 1040 -c 0 -i 20 -a 0 -x {0.0 3.0 -1 ------- null}
+ -t 1.40021312 -s 0 -d 6 -p tcp -e 1040 -c 0 -i 21 -a 0 -x {0.0 3.0 8 ------- null}
r -t 1.40029376 -s 6 -d 2 -p ack -e 40 -c 0 -i 16 -a 0 -x {5.0 2.0 2 ------- null}
h -t 1.40029376 -s 2 -d 6 -p tcp -e 1040 -c 0 -i 30 -a 0 -x {2.0 5.0 5 ------- null}
h -t 1.40029376 -s 2 -d 6 -p tcp -e 1040 -c 0 -i 31 -a 0 -x {2.0 5.0 6 ------- null}
+ -t 1.4002984 -s 0 -d 6 -p tcp -e 1040 -c 0 -i 22 -a 0 -x {0.0 3.0 9 ------- null}
+ -t 1.4002984 -s 0 -d 6 -p tcp -e 1040 -c 0 -i 23 -a 0 -x {0.0 3.0 10 ------- null}
- -t 1.4002984 -s 0 -d 6 -p tcp -e 1040 -c 0 -i 21 -a 0 -x {0.0 3.0 8 ------- null}
h -t 1.4002984 -s 0 -d 6 -p tcp -e 1040 -c 0 -i 21 -a 0 -x {0.0 3.0 -1 ------- null}
+ -t 1.40038368 -s 0 -d 6 -p tcp -e 1040 -c 0 -i 24 -a 0 -x {0.0 3.0 11 ------- null}
+ -t 1.40038368 -s 0 -d 6 -p tcp -e 1040 -c 0 -i 25 -a 0 -x {0.0 3.0 12 ------- null}
- -t 1.40038368 -s 0 -d 6 -p tcp -e 1040 -c 0 -i 22 -a 0 -x {0.0 3.0 9 ------- null}
h -t 1.40038368 -s 0 -d 6 -p tcp -e 1040 -c 0 -i 22 -a 0 -x {0.0 3.0 -1 ------- null}
+ -t 1.40046896 -s 0 -d 6 -p tcp -e 1040 -c 0 -i 26 -a 0 -x {0.0 3.0 13 ------- null}
+ -t 1.40046896 -s 0 -d 6 -p tcp -e 1040 -c 0 -i 27 -a 0 -x {0.0 3.0 14 ------- null}
- -t 1.40046896 -s 0 -d 6 -p tcp -e 1040 -c 0 -i 23 -a 0 -x {0.0 3.0 10 ------- null}
h -t 1.40046896 -s 0 -d 6 -p tcp -e 1040 -c 0 -i 23 -a 0 -x {0.0 3.0 -1 ------- null}
- -t 1.40055424 -s 0 -d 6 -p tcp -e 1040 -c 0 -i 24 -a 0 -x {0.0 3.0 11 ------- null}
h -t 1.40055424 -s 0 -d 6 -p tcp -e 1040 -c 0 -i 24 -a 0 -x {0.0 3.0 -1 ------- null}
- -t 1.40063952 -s 0 -d 6 -p tcp -e 1040 -c 0 -i 25 -a 0 -x {0.0 3.0 12 ------- null}
h -t 1.40063952 -s 0 -d 6 -p tcp -e 1040 -c 0 -i 25 -a 0 -x {0.0 3.0 -1 ------- null}
- -t 1.4007248 -s 0 -d 6 -p tcp -e 1040 -c 0 -i 26 -a 0 -x {0.0 3.0 13 ------- null}
h -t 1.4007248 -s 0 -d 6 -p tcp -e 1040 -c 0 -i 26 -a 0 -x {0.0 3.0 -1 ------- null}
- -t 1.40081008 -s 0 -d 6 -p tcp -e 1040 -c 0 -i 27 -a 0 -x {0.0 3.0 14 ------- null}
h -t 1.40081008 -s 0 -d 6 -p tcp -e 1040 -c 0 -i 27 -a 0 -x {0.0 3.0 -1 ------- null}
+ -t 1.50020848 -s 2 -d 6 -p tcp -e 1040 -c 0 -i 28 -a 0 -x {2.0 5.0 3 ------- null}
- -t 1.50020848 -s 2 -d 6 -p tcp -e 1040 -c 0 -i 28 -a 0 -x {2.0 5.0 3 ------- null}
h -t 1.50020848 -s 2 -d 6 -p tcp -e 1040 -c 0 -i 28 -a 0 -x {2.0 5.0 -1 ------- null}
+ -t 1.50020848 -s 2 -d 6 -p tcp -e 1040 -c 0 -i 29 -a 0 -x {2.0 5.0 4 ------- null}
+ -t 1.50029376 -s 2 -d 6 -p tcp -e 1040 -c 0 -i 30 -a 0 -x {2.0 5.0 5 ------- null}
+ -t 1.50029376 -s 2 -d 6 -p tcp -e 1040 -c 0 -i 31 -a 0 -x {2.0 5.0 6 ------- null}
- -t 1.50029376 -s 2 -d 6 -p tcp -e 1040 -c 0 -i 29 -a 0 -x {2.0 5.0 4 ------- null}
h -t 1.50029376 -s 2 -d 6 -p tcp -e 1040 -c 0 -i 29 -a 0 -x {2.0 5.0 -1 ------- null}
r -t 1.50030144 -s 6 -d 3 -p tcp -e 1040 -c 0 -i 20 -a 0 -x {0.0 3.0 7 ------- null}
h -t 1.50030144 -s 3 -d 6 -p ack -e 40 -c 0 -i 32 -a 0 -x {3.0 0.0 7 ------- null}
- -t 1.50037904 -s 2 -d 6 -p tcp -e 1040 -c 0 -i 30 -a 0 -x {2.0 5.0 5 ------- null}
h -t 1.50037904 -s 2 -d 6 -p tcp -e 1040 -c 0 -i 30 -a 0 -x {2.0 5.0 -1 ------- null}
r -t 1.50038672 -s 6 -d 3 -p tcp -e 1040 -c 0 -i 21 -a 0 -x {0.0 3.0 8 ------- null}
h -t 1.50038672 -s 3 -d 6 -p ack -e 40 -c 0 -i 33 -a 0 -x {3.0 0.0 8 ------- null}
- -t 1.50046432 -s 2 -d 6 -p tcp -e 1040 -c 0 -i 31 -a 0 -x {2.0 5.0 6 ------- null}
h -t 1.50046432 -s 2 -d 6 -p tcp -e 1040 -c 0 -i 31 -a 0 -x {2.0 5.0 -1 ------- null}
r -t 1.500472 -s 6 -d 3 -p tcp -e 1040 -c 0 -i 22 -a 0 -x {0.0 3.0 9 ------- null}
h -t 1.500472 -s 3 -d 6 -p ack -e 40 -c 0 -i 34 -a 0 -x {3.0 0.0 9 ------- null}
r -t 1.50055728 -s 6 -d 3 -p tcp -e 1040 -c 0 -i 23 -a 0 -x {0.0 3.0 10 ------- null}
h -t 1.50055728 -s 3 -d 6 -p ack -e 40 -c 0 -i 35 -a 0 -x {3.0 0.0 10 ------- null}
r -t 1.50064256 -s 6 -d 3 -p tcp -e 1040 -c 0 -i 24 -a 0 -x {0.0 3.0 11 ------- null}
h -t 1.50064256 -s 3 -d 6 -p ack -e 40 -c 0 -i 36 -a 0 -x {3.0 0.0 11 ------- null}
r -t 1.50072784 -s 6 -d 3 -p tcp -e 1040 -c 0 -i 25 -a 0 -x {0.0 3.0 12 ------- null}
h -t 1.50072784 -s 3 -d 6 -p ack -e 40 -c 0 -i 37 -a 0 -x {3.0 0.0 12 ------- null}
r -t 1.50081312 -s 6 -d 3 -p tcp -e 1040 -c 0 -i 26 -a 0 -x {0.0 3.0 13 ------- null}
h -t 1.50081312 -s 3 -d 6 -p ack -e 40 -c 0 -i 38 -a 0 -x {3.0 0.0 13 ------- null}
r -t 1.5008984 -s 6 -d 3 -p tcp -e 1040 -c 0 -i 27 -a 0 -x {0.0 3.0 14 ------- null}
h -t 1.5008984 -s 3 -d 6 -p ack -e 40 -c 0 -i 39 -a 0 -x {3.0 0.0 14 ------- null}
r -t 1.6002968 -s 6 -d 4 -p tcp -e 1040 -c 0 -i 28 -a 0 -x {2.0 5.0 3 ------- null}
+ -t 1.6002968 -s 4 -d 5 -p tcp -e 1040 -c 0 -i 28 -a 0 -x {2.0 5.0 3 ------- null}
- -t 1.6002968 -s 4 -d 5 -p tcp -e 1040 -c 0 -i 28 -a 0 -x {2.0 5.0 3 ------- null}
h -t 1.6002968 -s 4 -d 5 -p tcp -e 1040 -c 0 -i 28 -a 0 -x {2.0 5.0 -1 ------- null}
+ -t 1.60030144 -s 3 -d 6 -p ack -e 40 -c 0 -i 32 -a 0 -x {3.0 0.0 7 ------- null}
- -t 1.60030144 -s 3 -d 6 -p ack -e 40 -c 0 -i 32 -a 0 -x {3.0 0.0 7 ------- null}
h -t 1.60030144 -s 3 -d 6 -p ack -e 40 -c 0 -i 32 -a 0 -x {3.0 0.0 -1 ------- null}
r -t 1.60038208 -s 6 -d 4 -p tcp -e 1040 -c 0 -i 29 -a 0 -x {2.0 5.0 4 ------- null}
+ -t 1.60038208 -s 4 -d 5 -p tcp -e 1040 -c 0 -i 29 -a 0 -x {2.0 5.0 4 ------- null}
- -t 1.60038208 -s 4 -d 5 -p tcp -e 1040 -c 0 -i 29 -a 0 -x {2.0 5.0 4 ------- null}
h -t 1.60038208 -s 4 -d 5 -p tcp -e 1040 -c 0 -i 29 -a 0 -x {2.0 5.0 -1 ------- null}
+ -t 1.60038672 -s 3 -d 6 -p ack -e 40 -c 0 -i 33 -a 0 -x {3.0 0.0 8 ------- null}
- -t 1.60038672 -s 3 -d 6 -p ack -e 40 -c 0 -i 33 -a 0 -x {3.0 0.0 8 ------- null}
h -t 1.60038672 -s 3 -d 6 -p ack -e 40 -c 0 -i 33 -a 0 -x {3.0 0.0 -1 ------- null}
r -t 1.60046736 -s 6 -d 4 -p tcp -e 1040 -c 0 -i 30 -a 0 -x {2.0 5.0 5 ------- null}
+ -t 1.60046736 -s 4 -d 5 -p tcp -e 1040 -c 0 -i 30 -a 0 -x {2.0 5.0 5 ------- null}
- -t 1.60046736 -s 4 -d 5 -p tcp -e 1040 -c 0 -i 30 -a 0 -x {2.0 5.0 5 ------- null}
h -t 1.60046736 -s 4 -d 5 -p tcp -e 1040 -c 0 -i 30 -a 0 -x {2.0 5.0 -1 ------- null}
+ -t 1.600472 -s 3 -d 6 -p ack -e 40 -c 0 -i 34 -a 0 -x {3.0 0.0 9 ------- null}
- -t 1.600472 -s 3 -d 6 -p ack -e 40 -c 0 -i 34 -a 0 -x {3.0 0.0 9 ------- null}
h -t 1.600472 -s 3 -d 6 -p ack -e 40 -c 0 -i 34 -a 0 -x {3.0 0.0 -1 ------- null}
r -t 1.60055264 -s 6 -d 4 -p tcp -e 1040 -c 0 -i 31 -a 0 -x {2.0 5.0 6 ------- null}
+ -t 1.60055264 -s 4 -d 5 -p tcp -e 1040 -c 0 -i 31 -a 0 -x {2.0 5.0 6 ------- null}
- -t 1.60055264 -s 4 -d 5 -p tcp -e 1040 -c 0 -i 31 -a 0 -x {2.0 5.0 6 ------- null}
h -t 1.60055264 -s 4 -d 5 -p tcp -e 1040 -c 0 -i 31 -a 0 -x {2.0 5.0 -1 ------- null}
+ -t 1.60055728 -s 3 -d 6 -p ack -e 40 -c 0 -i 35 -a 0 -x {3.0 0.0 10 ------- null}
- -t 1.60055728 -s 3 -d 6 -p ack -e 40 -c 0 -i 35 -a 0 -x {3.0 0.0 10 ------- null}
h -t 1.60055728 -s 3 -d 6 -p ack -e 40 -c 0 -i 35 -a 0 -x {3.0 0.0 -1 ------- null}
+ -t 1.60064256 -s 3 -d 6 -p ack -e 40 -c 0 -i 36 -a 0 -x {3.0 0.0 11 ------- null}
- -t 1.60064256 -s 3 -d 6 -p ack -e 40 -c 0 -i 36 -a 0 -x {3.0 0.0 11 ------- null}
h -t 1.60064256 -s 3 -d 6 -p ack -e 40 -c 0 -i 36 -a 0 -x {3.0 0.0 -1 ------- null}
+ -t 1.60072784 -s 3 -d 6 -p ack -e 40 -c 0 -i 37 -a 0 -x {3.0 0.0 12 ------- null}
- -t 1.60072784 -s 3 -d 6 -p ack -e 40 -c 0 -i 37 -a 0 -x {3.0 0.0 12 ------- null}
h -t 1.60072784 -s 3 -d 6 -p ack -e 40 -c 0 -i 37 -a 0 -x {3.0 0.0 -1 ------- null}
+ -t 1.60081312 -s 3 -d 6 -p ack -e 40 -c 0 -i 38 -a 0 -x {3.0 0.0 13 ------- null}
- -t 1.60081312 -s 3 -d 6 -p ack -e 40 -c 0 -i 38 -a 0 -x {3.0 0.0 13 ------- null}
h -t 1.60081312 -s 3 -d 6 -p ack -e 40 -c 0 -i 38 -a 0 -x {3.0 0.0 -1 ------- null}
+ -t 1.6008984 -s 3 -d 6 -p ack -e 40 -c 0 -i 39 -a 0 -x {3.0 0.0 14 ------- null}
- -t 1.6008984 -s 3 -d 6 -p ack -e 40 -c 0 -i 39 -a 0 -x {3.0 0.0 14 ------- null}
h -t 1.6008984 -s 3 -d 6 -p ack -e 40 -c 0 -i 39 -a 0 -x {3.0 0.0 -1 ------- null}
r -t 1.70031056 -s 6 -d 0 -p ack -e 40 -c 0 -i 32 -a 0 -x {3.0 0.0 7 ------- null}
h -t 1.70031056 -s 0 -d 6 -p tcp -e 1040 -c 0 -i 40 -a 0 -x {0.0 3.0 15 ------- null}
h -t 1.70031056 -s 0 -d 6 -p tcp -e 1040 -c 0 -i 41 -a 0 -x {0.0 3.0 16 ------- null}
r -t 1.70038 -s 4 -d 5 -p tcp -e 1040 -c 0 -i 28 -a 0 -x {2.0 5.0 3 ------- null}
+ -t 1.70038 -s 5 -d 4 -p ack -e 40 -c 0 -i 42 -a 0 -x {5.0 2.0 3 ------- null}
- -t 1.70038 -s 5 -d 4 -p ack -e 40 -c 0 -i 42 -a 0 -x {5.0 2.0 3 ------- null}
h -t 1.70038 -s 5 -d 4 -p ack -e 40 -c 0 -i 42 -a 0 -x {5.0 2.0 -1 ------- null}
r -t 1.70039584 -s 6 -d 0 -p ack -e 40 -c 0 -i 33 -a 0 -x {3.0 0.0 8 ------- null}
h -t 1.70039584 -s 0 -d 6 -p tcp -e 1040 -c 0 -i 43 -a 0 -x {0.0 3.0 17 ------- null}
h -t 1.70039584 -s 0 -d 6 -p tcp -e 1040 -c 0 -i 44 -a 0 -x {0.0 3.0 18 ------- null}
r -t 1.70046528 -s 4 -d 5 -p tcp -e 1040 -c 0 -i 29 -a 0 -x {2.0 5.0 4 ------- null}
+ -t 1.70046528 -s 5 -d 4 -p ack -e 40 -c 0 -i 45 -a 0 -x {5.0 2.0 4 ------- null}
- -t 1.70046528 -s 5 -d 4 -p ack -e 40 -c 0 -i 45 -a 0 -x {5.0 2.0 4 ------- null}
h -t 1.70046528 -s 5 -d 4 -p ack -e 40 -c 0 -i 45 -a 0 -x {5.0 2.0 -1 ------- null}
r -t 1.70048112 -s 6 -d 0 -p ack -e 40 -c 0 -i 34 -a 0 -x {3.0 0.0 9 ------- null}
h -t 1.70048112 -s 0 -d 6 -p tcp -e 1040 -c 0 -i 46 -a 0 -x {0.0 3.0 19 ------- null}
h -t 1.70048112 -s 0 -d 6 -p tcp -e 1040 -c 0 -i 47 -a 0 -x {0.0 3.0 20 ------- null}
r -t 1.70055056 -s 4 -d 5 -p tcp -e 1040 -c 0 -i 30 -a 0 -x {2.0 5.0 5 ------- null}
+ -t 1.70055056 -s 5 -d 4 -p ack -e 40 -c 0 -i 48 -a 0 -x {5.0 2.0 5 ------- null}
- -t 1.70055056 -s 5 -d 4 -p ack -e 40 -c 0 -i 48 -a 0 -x {5.0 2.0 5 ------- null}
h -t 1.70055056 -s 5 -d 4 -p ack -e 40 -c 0 -i 48 -a 0 -x {5.0 2.0 -1 ------- null}
r -t 1.7005664 -s 6 -d 0 -p ack -e 40 -c 0 -i 35 -a 0 -x {3.0 0.0 10 ------- null}
h -t 1.7005664 -s 0 -d 6 -p tcp -e 1040 -c 0 -i 49 -a 0 -x {0.0 3.0 21 ------- null}
h -t 1.7005664 -s 0 -d 6 -p tcp -e 1040 -c 0 -i 50 -a 0 -x {0.0 3.0 22 ------- null}
r -t 1.70063584 -s 4 -d 5 -p tcp -e 1040 -c 0 -i 31 -a 0 -x {2.0 5.0 6 ------- null}
+ -t 1.70063584 -s 5 -d 4 -p ack -e 40 -c 0 -i 51 -a 0 -x {5.0 2.0 6 ------- null}
- -t 1.70063584 -s 5 -d 4 -p ack -e 40 -c 0 -i 51 -a 0 -x {5.0 2.0 6 ------- null}
h -t 1.70063584 -s 5 -d 4 -p ack -e 40 -c 0 -i 51 -a 0 -x {5.0 2.0 -1 ------- null}
r -t 1.70065168 -s 6 -d 0 -p ack -e 40 -c 0 -i 36 -a 0 -x {3.0 0.0 11 ------- null}
h -t 1.70065168 -s 0 -d 6 -p tcp -e 1040 -c 0 -i 52 -a 0 -x {0.0 3.0 23 ------- null}
h -t 1.70065168 -s 0 -d 6 -p tcp -e 1040 -c 0 -i 53 -a 0 -x {0.0 3.0 24 ------- null}
r -t 1.70073696 -s 6 -d 0 -p ack -e 40 -c 0 -i 37 -a 0 -x {3.0 0.0 12 ------- null}
h -t 1.70073696 -s 0 -d 6 -p tcp -e 1040 -c 0 -i 54 -a 0 -x {0.0 3.0 25 ------- null}
h -t 1.70073696 -s 0 -d 6 -p tcp -e 1040 -c 0 -i 55 -a 0 -x {0.0 3.0 26 ------- null}
r -t 1.70082224 -s 6 -d 0 -p ack -e 40 -c 0 -i 38 -a 0 -x {3.0 0.0 13 ------- null}
h -t 1.70082224 -s 0 -d 6 -p tcp -e 1040 -c 0 -i 56 -a 0 -x {0.0 3.0 27 ------- null}
h -t 1.70082224 -s 0 -d 6 -p tcp -e 1040 -c 0 -i 57 -a 0 -x {0.0 3.0 28 ------- null}
r -t 1.70090752 -s 6 -d 0 -p ack -e 40 -c 0 -i 39 -a 0 -x {3.0 0.0 14 ------- null}
h -t 1.70090752 -s 0 -d 6 -p tcp -e 1040 -c 0 -i 58 -a 0 -x {0.0 3.0 29 ------- null}
h -t 1.70090752 -s 0 -d 6 -p tcp -e 1040 -c 0 -i 59 -a 0 -x {0.0 3.0 30 ------- null}
+ -t 1.80031056 -s 0 -d 6 -p tcp -e 1040 -c 0 -i 40 -a 0 -x {0.0 3.0 15 ------- null}
- -t 1.80031056 -s 0 -d 6 -p tcp -e 1040 -c 0 -i 40 -a 0 -x {0.0 3.0 15 ------- null}
h -t 1.80031056 -s 0 -d 6 -p tcp -e 1040 -c 0 -i 40 -a 0 -x {0.0 3.0 -1 ------- null}
+ -t 1.80031056 -s 0 -d 6 -p tcp -e 1040 -c 0 -i 41 -a 0 -x {0.0 3.0 16 ------- null}
r -t 1.8003832 -s 5 -d 4 -p ack -e 40 -c 0 -i 42 -a 0 -x {5.0 2.0 3 ------- null}
h -t 1.8003832 -s 4 -d 6 -p ack -e 40 -c 0 -i 42 -a 0 -x {5.0 2.0 3 ------- null}
+ -t 1.80039584 -s 0 -d 6 -p tcp -e 1040 -c 0 -i 43 -a 0 -x {0.0 3.0 17 ------- null}
+ -t 1.80039584 -s 0 -d 6 -p tcp -e 1040 -c 0 -i 44 -a 0 -x {0.0 3.0 18 ------- null}
- -t 1.80039584 -s 0 -d 6 -p tcp -e 1040 -c 0 -i 41 -a 0 -x {0.0 3.0 16 ------- null}
h -t 1.80039584 -s 0 -d 6 -p tcp -e 1040 -c 0 -i 41 -a 0 -x {0.0 3.0 -1 ------- null}
r -t 1.80046848 -s 5 -d 4 -p ack -e 40 -c 0 -i 45 -a 0 -x {5.0 2.0 4 ------- null}
h -t 1.80046848 -s 4 -d 6 -p ack -e 40 -c 0 -i 45 -a 0 -x {5.0 2.0 4 ------- null}
+ -t 1.80048112 -s 0 -d 6 -p tcp -e 1040 -c 0 -i 46 -a 0 -x {0.0 3.0 19 ------- null}
+ -t 1.80048112 -s 0 -d 6 -p tcp -e 1040 -c 0 -i 47 -a 0 -x {0.0 3.0 20 ------- null}
- -t 1.80048112 -s 0 -d 6 -p tcp -e 1040 -c 0 -i 43 -a 0 -x {0.0 3.0 17 ------- null}
h -t 1.80048112 -s 0 -d 6 -p tcp -e 1040 -c 0 -i 43 -a 0 -x {0.0 3.0 -1 ------- null}
r -t 1.80055376 -s 5 -d 4 -p ack -e 40 -c 0 -i 48 -a 0 -x {5.0 2.0 5 ------- null}
h -t 1.80055376 -s 4 -d 6 -p ack -e 40 -c 0 -i 48 -a 0 -x {5.0 2.0 5 ------- null}
+ -t 1.8005664 -s 0 -d 6 -p tcp -e 1040 -c 0 -i 49 -a 0 -x {0.0 3.0 21 ------- null}
+ -t 1.8005664 -s 0 -d 6 -p tcp -e 1040 -c 0 -i 50 -a 0 -x {0.0 3.0 22 ------- null}
- -t 1.8005664 -s 0 -d 6 -p tcp -e 1040 -c 0 -i 44 -a 0 -x {0.0 3.0 18 ------- null}
h -t 1.8005664 -s 0 -d 6 -p tcp -e 1040 -c 0 -i 44 -a 0 -x {0.0 3.0 -1 ------- null}
r -t 1.80063904 -s 5 -d 4 -p ack -e 40 -c 0 -i 51 -a 0 -x {5.0 2.0 6 ------- null}
h -t 1.80063904 -s 4 -d 6 -p ack -e 40 -c 0 -i 51 -a 0 -x {5.0 2.0 6 ------- null}
+ -t 1.80065168 -s 0 -d 6 -p tcp -e 1040 -c 0 -i 52 -a 0 -x {0.0 3.0 23 ------- null}
+ -t 1.80065168 -s 0 -d 6 -p tcp -e 1040 -c 0 -i 53 -a 0 -x {0.0 3.0 24 ------- null}
- -t 1.80065168 -s 0 -d 6 -p tcp -e 1040 -c 0 -i 46 -a 0 -x {0.0 3.0 19 ------- null}
h -t 1.80065168 -s 0 -d 6 -p tcp -e 1040 -c 0 -i 46 -a 0 -x {0.0 3.0 -1 ------- null}
+ -t 1.80073696 -s 0 -d 6 -p tcp -e 1040 -c 0 -i 54 -a 0 -x {0.0 3.0 25 ------- null}
+ -t 1.80073696 -s 0 -d 6 -p tcp -e 1040 -c 0 -i 55 -a 0 -x {0.0 3.0 26 ------- null}
- -t 1.80073696 -s 0 -d 6 -p tcp -e 1040 -c 0 -i 47 -a 0 -x {0.0 3.0 20 ------- null}
h -t 1.80073696 -s 0 -d 6 -p tcp -e 1040 -c 0 -i 47 -a 0 -x {0.0 3.0 -1 ------- null}
+ -t 1.80082224 -s 0 -d 6 -p tcp -e 1040 -c 0 -i 56 -a 0 -x {0.0 3.0 27 ------- null}
+ -t 1.80082224 -s 0 -d 6 -p tcp -e 1040 -c 0 -i 57 -a 0 -x {0.0 3.0 28 ------- null}
- -t 1.80082224 -s 0 -d 6 -p tcp -e 1040 -c 0 -i 49 -a 0 -x {0.0 3.0 21 ------- null}
h -t 1.80082224 -s 0 -d 6 -p tcp -e 1040 -c 0 -i 49 -a 0 -x {0.0 3.0 -1 ------- null}
+ -t 1.80090752 -s 0 -d 6 -p tcp -e 1040 -c 0 -i 58 -a 0 -x {0.0 3.0 29 ------- null}
+ -t 1.80090752 -s 0 -d 6 -p tcp -e 1040 -c 0 -i 59 -a 0 -x {0.0 3.0 30 ------- null}
- -t 1.80090752 -s 0 -d 6 -p tcp -e 1040 -c 0 -i 50 -a 0 -x {0.0 3.0 22 ------- null}
h -t 1.80090752 -s 0 -d 6 -p tcp -e 1040 -c 0 -i 50 -a 0 -x {0.0 3.0 -1 ------- null}
- -t 1.8009928 -s 0 -d 6 -p tcp -e 1040 -c 0 -i 52 -a 0 -x {0.0 3.0 23 ------- null}
h -t 1.8009928 -s 0 -d 6 -p tcp -e 1040 -c 0 -i 52 -a 0 -x {0.0 3.0 -1 ------- null}
- -t 1.80107808 -s 0 -d 6 -p tcp -e 1040 -c 0 -i 53 -a 0 -x {0.0 3.0 24 ------- null}
h -t 1.80107808 -s 0 -d 6 -p tcp -e 1040 -c 0 -i 53 -a 0 -x {0.0 3.0 -1 ------- null}
- -t 1.80116336 -s 0 -d 6 -p tcp -e 1040 -c 0 -i 54 -a 0 -x {0.0 3.0 25 ------- null}
h -t 1.80116336 -s 0 -d 6 -p tcp -e 1040 -c 0 -i 54 -a 0 -x {0.0 3.0 -1 ------- null}
- -t 1.80124864 -s 0 -d 6 -p tcp -e 1040 -c 0 -i 55 -a 0 -x {0.0 3.0 26 ------- null}
h -t 1.80124864 -s 0 -d 6 -p tcp -e 1040 -c 0 -i 55 -a 0 -x {0.0 3.0 -1 ------- null}
- -t 1.80133392 -s 0 -d 6 -p tcp -e 1040 -c 0 -i 56 -a 0 -x {0.0 3.0 27 ------- null}
h -t 1.80133392 -s 0 -d 6 -p tcp -e 1040 -c 0 -i 56 -a 0 -x {0.0 3.0 -1 ------- null}
- -t 1.8014192 -s 0 -d 6 -p tcp -e 1040 -c 0 -i 57 -a 0 -x {0.0 3.0 28 ------- null}
h -t 1.8014192 -s 0 -d 6 -p tcp -e 1040 -c 0 -i 57 -a 0 -x {0.0 3.0 -1 ------- null}
- -t 1.80150448 -s 0 -d 6 -p tcp -e 1040 -c 0 -i 58 -a 0 -x {0.0 3.0 29 ------- null}
h -t 1.80150448 -s 0 -d 6 -p tcp -e 1040 -c 0 -i 58 -a 0 -x {0.0 3.0 -1 ------- null}
- -t 1.80158976 -s 0 -d 6 -p tcp -e 1040 -c 0 -i 59 -a 0 -x {0.0 3.0 30 ------- null}
h -t 1.80158976 -s 0 -d 6 -p tcp -e 1040 -c 0 -i 59 -a 0 -x {0.0 3.0 -1 ------- null}
+ -t 1.9003832 -s 4 -d 6 -p ack -e 40 -c 0 -i 42 -a 0 -x {5.0 2.0 3 ------- null}
- -t 1.9003832 -s 4 -d 6 -p ack -e 40 -c 0 -i 42 -a 0 -x {5.0 2.0 3 ------- null}
h -t 1.9003832 -s 4 -d 6 -p ack -e 40 -c 0 -i 42 -a 0 -x {5.0 2.0 -1 ------- null}
r -t 1.90039888 -s 6 -d 3 -p tcp -e 1040 -c 0 -i 40 -a 0 -x {0.0 3.0 15 ------- null}
h -t 1.90039888 -s 3 -d 6 -p ack -e 40 -c 0 -i 60 -a 0 -x {3.0 0.0 15 ------- null}
+ -t 1.90046848 -s 4 -d 6 -p ack -e 40 -c 0 -i 45 -a 0 -x {5.0 2.0 4 ------- null}
- -t 1.90046848 -s 4 -d 6 -p ack -e 40 -c 0 -i 45 -a 0 -x {5.0 2.0 4 ------- null}
h -t 1.90046848 -s 4 -d 6 -p ack -e 40 -c 0 -i 45 -a 0 -x {5.0 2.0 -1 ------- null}
r -t 1.90048416 -s 6 -d 3 -p tcp -e 1040 -c 0 -i 41 -a 0 -x {0.0 3.0 16 ------- null}
h -t 1.90048416 -s 3 -d 6 -p ack -e 40 -c 0 -i 61 -a 0 -x {3.0 0.0 16 ------- null}
+ -t 1.90055376 -s 4 -d 6 -p ack -e 40 -c 0 -i 48 -a 0 -x {5.0 2.0 5 ------- null}
- -t 1.90055376 -s 4 -d 6 -p ack -e 40 -c 0 -i 48 -a 0 -x {5.0 2.0 5 ------- null}
h -t 1.90055376 -s 4 -d 6 -p ack -e 40 -c 0 -i 48 -a 0 -x {5.0 2.0 -1 ------- null}
r -t 1.90056944 -s 6 -d 3 -p tcp -e 1040 -c 0 -i 43 -a 0 -x {0.0 3.0 17 ------- null}
h -t 1.90056944 -s 3 -d 6 -p ack -e 40 -c 0 -i 62 -a 0 -x {3.0 0.0 17 ------- null}
+ -t 1.90063904 -s 4 -d 6 -p ack -e 40 -c 0 -i 51 -a 0 -x {5.0 2.0 6 ------- null}
- -t 1.90063904 -s 4 -d 6 -p ack -e 40 -c 0 -i 51 -a 0 -x {5.0 2.0 6 ------- null}
h -t 1.90063904 -s 4 -d 6 -p ack -e 40 -c 0 -i 51 -a 0 -x {5.0 2.0 -1 ------- null}
r -t 1.90065472 -s 6 -d 3 -p tcp -e 1040 -c 0 -i 44 -a 0 -x {0.0 3.0 18 ------- null}
h -t 1.90065472 -s 3 -d 6 -p ack -e 40 -c 0 -i 63 -a 0 -x {3.0 0.0 18 ------- null}
r -t 1.90074 -s 6 -d 3 -p tcp -e 1040 -c 0 -i 46 -a 0 -x {0.0 3.0 19 ------- null}
h -t 1.90074 -s 3 -d 6 -p ack -e 40 -c 0 -i 64 -a 0 -x {3.0 0.0 19 ------- null}
r -t 1.90082528 -s 6 -d 3 -p tcp -e 1040 -c 0 -i 47 -a 0 -x {0.0 3.0 20 ------- null}
h -t 1.90082528 -s 3 -d 6 -p ack -e 40 -c 0 -i 65 -a 0 -x {3.0 0.0 20 ------- null}
r -t 1.90091056 -s 6 -d 3 -p tcp -e 1040 -c 0 -i 49 -a 0 -x {0.0 3.0 21 ------- null}