h 0.1 0 6 tcp 40 ------- 0 0.0 3.0 0 0
h 0.2 2 6 tcp 40 ------- 0 2.0 5.0 0 1
+ 0.2 0 6 tcp 40 ------- 0 0.0 3.0 0 0
- 0.2 0 6 tcp 40 ------- 0 0.0 3.0 0 0
+ 0.3 2 6 tcp 40 ------- 0 2.0 5.0 0 1
- 0.3 2 6 tcp 40 ------- 0 2.0 5.0 0 1
r 0.300009 6 3 tcp 40 ------- 0 0.0 3.0 0 0
h 0.300009 3 6 ack 40 ------- 0 3.0 0.0 0 2
+ 0.400009 3 6 ack 40 ------- 0 3.0 0.0 0 2
- 0.400009 3 6 ack 40 ------- 0 3.0 0.0 0 2
r 0.400009 6 4 tcp 40 ------- 0 2.0 5.0 0 1
+ 0.400009 4 5 tcp 40 ------- 0 2.0 5.0 0 1
- 0.400009 4 5 tcp 40 ------- 0 2.0 5.0 0 1
r 0.500012 4 5 tcp 40 ------- 0 2.0 5.0 0 1
+ 0.500012 5 4 ack 40 ------- 0 5.0 2.0 0 3
- 0.500012 5 4 ack 40 ------- 0 5.0 2.0 0 3
r 0.500018 6 0 ack 40 ------- 0 3.0 0.0 0 2
h 0.500018 0 6 tcp 1040 ------- 0 0.0 3.0 1 4
h 0.500018 0 6 tcp 1040 ------- 0 0.0 3.0 2 5
r 0.600016 5 4 ack 40 ------- 0 5.0 2.0 0 3
h 0.600016 4 6 ack 40 ------- 0 5.0 2.0 0 3
+ 0.600018 0 6 tcp 1040 ------- 0 0.0 3.0 1 4
- 0.600018 0 6 tcp 1040 ------- 0 0.0 3.0 1 4
+ 0.600018 0 6 tcp 1040 ------- 0 0.0 3.0 2 5
- 0.600104 0 6 tcp 1040 ------- 0 0.0 3.0 2 5
+ 0.700016 4 6 ack 40 ------- 0 5.0 2.0 0 3
- 0.700016 4 6 ack 40 ------- 0 5.0 2.0 0 3
r 0.700107 6 3 tcp 1040 ------- 0 0.0 3.0 1 4
h 0.700107 3 6 ack 40 ------- 0 3.0 0.0 1 6
r 0.700192 6 3 tcp 1040 ------- 0 0.0 3.0 2 5
h 0.700192 3 6 ack 40 ------- 0 3.0 0.0 2 7
r 0.800025 6 2 ack 40 ------- 0 5.0 2.0 0 3
h 0.800025 2 6 tcp 1040 ------- 0 2.0 5.0 1 8
h 0.800025 2 6 tcp 1040 ------- 0 2.0 5.0 2 9
+ 0.800107 3 6 ack 40 ------- 0 3.0 0.0 1 6
- 0.800107 3 6 ack 40 ------- 0 3.0 0.0 1 6
+ 0.800192 3 6 ack 40 ------- 0 3.0 0.0 2 7
- 0.800192 3 6 ack 40 ------- 0 3.0 0.0 2 7
+ 0.900025 2 6 tcp 1040 ------- 0 2.0 5.0 1 8
- 0.900025 2 6 tcp 1040 ------- 0 2.0 5.0 1 8
+ 0.900025 2 6 tcp 1040 ------- 0 2.0 5.0 2 9
- 0.90011 2 6 tcp 1040 ------- 0 2.0 5.0 2 9
r 0.900116 6 0 ack 40 ------- 0 3.0 0.0 1 6
h 0.900116 0 6 tcp 1040 ------- 0 0.0 3.0 3 10
h 0.900116 0 6 tcp 1040 ------- 0 0.0 3.0 4 11
r 0.900201 6 0 ack 40 ------- 0 3.0 0.0 2 7
h 0.900201 0 6 tcp 1040 ------- 0 0.0 3.0 5 12
h 0.900201 0 6 tcp 1040 ------- 0 0.0 3.0 6 13
r 1.000113 6 4 tcp 1040 ------- 0 2.0 5.0 1 8
+ 1.000113 4 5 tcp 1040 ------- 0 2.0 5.0 1 8
- 1.000113 4 5 tcp 1040 ------- 0 2.0 5.0 1 8
+ 1.000116 0 6 tcp 1040 ------- 0 0.0 3.0 3 10
- 1.000116 0 6 tcp 1040 ------- 0 0.0 3.0 3 10
+ 1.000116 0 6 tcp 1040 ------- 0 0.0 3.0 4 11
r 1.000198 6 4 tcp 1040 ------- 0 2.0 5.0 2 9
+ 1.000198 4 5 tcp 1040 ------- 0 2.0 5.0 2 9
- 1.000198 4 5 tcp 1040 ------- 0 2.0 5.0 2 9
- 1.000201 0 6 tcp 1040 ------- 0 0.0 3.0 4 11
+ 1.000201 0 6 tcp 1040 ------- 0 0.0 3.0 5 12
+ 1.000201 0 6 tcp 1040 ------- 0 0.0 3.0 6 13
- 1.000286 0 6 tcp 1040 ------- 0 0.0 3.0 5 12
- 1.000372 0 6 tcp 1040 ------- 0 0.0 3.0 6 13
r 1.100196 4 5 tcp 1040 ------- 0 2.0 5.0 1 8
+ 1.100196 5 4 ack 40 ------- 0 5.0 2.0 1 14
- 1.100196 5 4 ack 40 ------- 0 5.0 2.0 1 14
r 1.100204 6 3 tcp 1040 ------- 0 0.0 3.0 3 10
h 1.100204 3 6 ack 40 ------- 0 3.0 0.0 3 15
r 1.100281 4 5 tcp 1040 ------- 0 2.0 5.0 2 9
+ 1.100281 5 4 ack 40 ------- 0 5.0 2.0 2 16
- 1.100281 5 4 ack 40 ------- 0 5.0 2.0 2 16
r 1.100289 6 3 tcp 1040 ------- 0 0.0 3.0 4 11
h 1.100289 3 6 ack 40 ------- 0 3.0 0.0 4 17
r 1.100375 6 3 tcp 1040 ------- 0 0.0 3.0 5 12
h 1.100375 3 6 ack 40 ------- 0 3.0 0.0 5 18
r 1.10046 6 3 tcp 1040 ------- 0 0.0 3.0 6 13
h 1.10046 3 6 ack 40 ------- 0 3.0 0.0 6 19
r 1.200199 5 4 ack 40 ------- 0 5.0 2.0 1 14
h 1.200199 4 6 ack 40 ------- 0 5.0 2.0 1 14
+ 1.200204 3 6 ack 40 ------- 0 3.0 0.0 3 15
- 1.200204 3 6 ack 40 ------- 0 3.0 0.0 3 15
r 1.200285 5 4 ack 40 ------- 0 5.0 2.0 2 16
h 1.200285 4 6 ack 40 ------- 0 5.0 2.0 2 16
+ 1.200289 3 6 ack 40 ------- 0 3.0 0.0 4 17
- 1.200289 3 6 ack 40 ------- 0 3.0 0.0 4 17
+ 1.200375 3 6 ack 40 ------- 0 3.0 0.0 5 18
- 1.200375 3 6 ack 40 ------- 0 3.0 0.0 5 18
+ 1.20046 3 6 ack 40 ------- 0 3.0 0.0 6 19
- 1.20046 3 6 ack 40 ------- 0 3.0 0.0 6 19
+ 1.300199 4 6 ack 40 ------- 0 5.0 2.0 1 14
- 1.300199 4 6 ack 40 ------- 0 5.0 2.0 1 14
r 1.300213 6 0 ack 40 ------- 0 3.0 0.0 3 15
h 1.300213 0 6 tcp 1040 ------- 0 0.0 3.0 7 20
h 1.300213 0 6 tcp 1040 ------- 0 0.0 3.0 8 21
+ 1.300285 4 6 ack 40 ------- 0 5.0 2.0 2 16
- 1.300285 4 6 ack 40 ------- 0 5.0 2.0 2 16
r 1.300298 6 0 ack 40 ------- 0 3.0 0.0 4 17
h 1.300298 0 6 tcp 1040 ------- 0 0.0 3.0 9 22
h 1.300298 0 6 tcp 1040 ------- 0 0.0 3.0 10 23
r 1.300384 6 0 ack 40 ------- 0 3.0 0.0 5 18
h 1.300384 0 6 tcp 1040 ------- 0 0.0 3.0 11 24
h 1.300384 0 6 tcp 1040 ------- 0 0.0 3.0 12 25
r 1.300469 6 0 ack 40 ------- 0 3.0 0.0 6 19
h 1.300469 0 6 tcp 1040 ------- 0 0.0 3.0 13 26
h 1.300469 0 6 tcp 1040 ------- 0 0.0 3.0 14 27
r 1.400208 6 2 ack 40 ------- 0 5.0 2.0 1 14
h 1.400208 2 6 tcp 1040 ------- 0 2.0 5.0 3 28
h 1.400208 2 6 tcp 1040 ------- 0 2.0 5.0 4 29
+ 1.400213 0 6 tcp 1040 ------- 0 0.0 3.0 7 20
- 1.400213 0 6 tcp 1040 ------- 0 0.0 3.0 7 20
+ 1.400213 0 6 tcp 1040 ------- 0 0.0 3.0 8 21
r 1.400294 6 2 ack 40 ------- 0 5.0 2.0 2 16
h 1.400294 2 6 tcp 1040 ------- 0 2.0 5.0 5 30
h 1.400294 2 6 tcp 1040 ------- 0 2.0 5.0 6 31
+ 1.400298 0 6 tcp 1040 ------- 0 0.0 3.0 9 22
+ 1.400298 0 6 tcp 1040 ------- 0 0.0 3.0 10 23
- 1.400298 0 6 tcp 1040 ------- 0 0.0 3.0 8 21
+ 1.400384 0 6 tcp 1040 ------- 0 0.0 3.0 11 24
+ 1.400384 0 6 tcp 1040 ------- 0 0.0 3.0 12 25
- 1.400384 0 6 tcp 1040 ------- 0 0.0 3.0 9 22
+ 1.400469 0 6 tcp 1040 ------- 0 0.0 3.0 13 26
+ 1.400469 0 6 tcp 1040 ------- 0 0.0 3.0 14 27
- 1.400469 0 6 tcp 1040 ------- 0 0.0 3.0 10 23
- 1.400554 0 6 tcp 1040 ------- 0 0.0 3.0 11 24
- 1.40064 0 6 tcp 1040 ------- 0 0.0 3.0 12 25
- 1.400725 0 6 tcp 1040 ------- 0 0.0 3.0 13 26
- 1.40081 0 6 tcp 1040 ------- 0 0.0 3.0 14 27
+ 1.500208 2 6 tcp 1040 ------- 0 2.0 5.0 3 28
- 1.500208 2 6 tcp 1040 ------- 0 2.0 5.0 3 28
+ 1.500208 2 6 tcp 1040 ------- 0 2.0 5.0 4 29
+ 1.500294 2 6 tcp 1040 ------- 0 2.0 5.0 5 30
+ 1.500294 2 6 tcp 1040 ------- 0 2.0 5.0 6 31
- 1.500294 2 6 tcp 1040 ------- 0 2.0 5.0 4 29
r 1.500301 6 3 tcp 1040 ------- 0 0.0 3.0 7 20
h 1.500301 3 6 ack 40 ------- 0 3.0 0.0 7 32
- 1.500379 2 6 tcp 1040 ------- 0 2.0 5.0 5 30
r 1.500387 6 3 tcp 1040 ------- 0 0.0 3.0 8 21
h 1.500387 3 6 ack 40 ------- 0 3.0 0.0 8 33
- 1.500464 2 6 tcp 1040 ------- 0 2.0 5.0 6 31
r 1.500472 6 3 tcp 1040 ------- 0 0.0 3.0 9 22
h 1.500472 3 6 ack 40 ------- 0 3.0 0.0 9 34
r 1.500557 6 3 tcp 1040 ------- 0 0.0 3.0 10 23
h 1.500557 3 6 ack 40 ------- 0 3.0 0.0 10 35
r 1.500643 6 3 tcp 1040 ------- 0 0.0 3.0 11 24
h 1.500643 3 6 ack 40 ------- 0 3.0 0.0 11 36
r 1.500728 6 3 tcp 1040 ------- 0 0.0 3.0 12 25
h 1.500728 3 6 ack 40 ------- 0 3.0 0.0 12 37
r 1.500813 6 3 tcp 1040 ------- 0 0.0 3.0 13 26
h 1.500813 3 6 ack 40 ------- 0 3.0 0.0 13 38
r 1.500898 6 3 tcp 1040 ------- 0 0.0 3.0 14 27
h 1.500898 3 6 ack 40 ------- 0 3.0 0.0 14 39
r 1.600297 6 4 tcp 1040 ------- 0 2.0 5.0 3 28
+ 1.600297 4 5 tcp 1040 ------- 0 2.0 5.0 3 28
- 1.600297 4 5 tcp 1040 ------- 0 2.0 5.0 3 28
+ 1.600301 3 6 ack 40 ------- 0 3.0 0.0 7 32
- 1.600301 3 6 ack 40 ------- 0 3.0 0.0 7 32
r 1.600382 6 4 tcp 1040 ------- 0 2.0 5.0 4 29
+ 1.600382 4 5 tcp 1040 ------- 0 2.0 5.0 4 29
- 1.600382 4 5 tcp 1040 ------- 0 2.0 5.0 4 29
+ 1.600387 3 6 ack 40 ------- 0 3.0 0.0 8 33
- 1.600387 3 6 ack 40 ------- 0 3.0 0.0 8 33
r 1.600467 6 4 tcp 1040 ------- 0 2.0 5.0 5 30
+ 1.600467 4 5 tcp 1040 ------- 0 2.0 5.0 5 30
- 1.600467 4 5 tcp 1040 ------- 0 2.0 5.0 5 30
+ 1.600472 3 6 ack 40 ------- 0 3.0 0.0 9 34
- 1.600472 3 6 ack 40 ------- 0 3.0 0.0 9 34
r 1.600553 6 4 tcp 1040 ------- 0 2.0 5.0 6 31
+ 1.600553 4 5 tcp 1040 ------- 0 2.0 5.0 6 31
- 1.600553 4 5 tcp 1040 ------- 0 2.0 5.0 6 31
+ 1.600557 3 6 ack 40 ------- 0 3.0 0.0 10 35
- 1.600557 3 6 ack 40 ------- 0 3.0 0.0 10 35
+ 1.600643 3 6 ack 40 ------- 0 3.0 0.0 11 36
- 1.600643 3 6 ack 40 ------- 0 3.0 0.0 11 36
+ 1.600728 3 6 ack 40 ------- 0 3.0 0.0 12 37
- 1.600728 3 6 ack 40 ------- 0 3.0 0.0 12 37
+ 1.600813 3 6 ack 40 ------- 0 3.0 0.0 13 38
- 1.600813 3 6 ack 40 ------- 0 3.0 0.0 13 38
+ 1.600898 3 6 ack 40 ------- 0 3.0 0.0 14 39
- 1.600898 3 6 ack 40 ------- 0 3.0 0.0 14 39
r 1.700311 6 0 ack 40 ------- 0 3.0 0.0 7 32
h 1.700311 0 6 tcp 1040 ------- 0 0.0 3.0 15 40
h 1.700311 0 6 tcp 1040 ------- 0 0.0 3.0 16 41
r 1.70038 4 5 tcp 1040 ------- 0 2.0 5.0 3 28
+ 1.70038 5 4 ack 40 ------- 0 5.0 2.0 3 42
- 1.70038 5 4 ack 40 ------- 0 5.0 2.0 3 42
r 1.700396 6 0 ack 40 ------- 0 3.0 0.0 8 33
h 1.700396 0 6 tcp 1040 ------- 0 0.0 3.0 17 43
h 1.700396 0 6 tcp 1040 ------- 0 0.0 3.0 18 44
r 1.700465 4 5 tcp 1040 ------- 0 2.0 5.0 4 29
+ 1.700465 5 4 ack 40 ------- 0 5.0 2.0 4 45
- 1.700465 5 4 ack 40 ------- 0 5.0 2.0 4 45
r 1.700481 6 0 ack 40 ------- 0 3.0 0.0 9 34
h 1.700481 0 6 tcp 1040 ------- 0 0.0 3.0 19 46
h 1.700481 0 6 tcp 1040 ------- 0 0.0 3.0 20 47
r 1.700551 4 5 tcp 1040 ------- 0 2.0 5.0 5 30
+ 1.700551 5 4 ack 40 ------- 0 5.0 2.0 5 48
- 1.700551 5 4 ack 40 ------- 0 5.0 2.0 5 48
r 1.700566 6 0 ack 40 ------- 0 3.0 0.0 10 35
h 1.700566 0 6 tcp 1040 ------- 0 0.0 3.0 21 49
h 1.700566 0 6 tcp 1040 ------- 0 0.0 3.0 22 50
r 1.700636 4 5 tcp 1040 ------- 0 2.0 5.0 6 31
+ 1.700636 5 4 ack 40 ------- 0 5.0 2.0 6 51
- 1.700636 5 4 ack 40 ------- 0 5.0 2.0 6 51
r 1.700652 6 0 ack 40 ------- 0 3.0 0.0 11 36
h 1.700652 0 6 tcp 1040 ------- 0 0.0 3.0 23 52
h 1.700652 0 6 tcp 1040 ------- 0 0.0 3.0 24 53
r 1.700737 6 0 ack 40 ------- 0 3.0 0.0 12 37
h 1.700737 0 6 tcp 1040 ------- 0 0.0 3.0 25 54
h 1.700737 0 6 tcp 1040 ------- 0 0.0 3.0 26 55
r 1.700822 6 0 ack 40 ------- 0 3.0 0.0 13 38
h 1.700822 0 6 tcp 1040 ------- 0 0.0 3.0 27 56
h 1.700822 0 6 tcp 1040 ------- 0 0.0 3.0 28 57
r 1.700908 6 0 ack 40 ------- 0 3.0 0.0 14 39
h 1.700908 0 6 tcp 1040 ------- 0 0.0 3.0 29 58
h 1.700908 0 6 tcp 1040 ------- 0 0.0 3.0 30 59
+ 1.800311 0 6 tcp 1040 ------- 0 0.0 3.0 15 40
- 1.800311 0 6 tcp 1040 ------- 0 0.0 3.0 15 40
+ 1.800311 0 6 tcp 1040 ------- 0 0.0 3.0 16 41
r 1.800383 5 4 ack 40 ------- 0 5.0 2.0 3 42
h 1.800383 4 6 ack 40 ------- 0 5.0 2.0 3 42
+ 1.800396 0 6 tcp 1040 ------- 0 0.0 3.0 17 43
+ 1.800396 0 6 tcp 1040 ------- 0 0.0 3.0 18 44
- 1.800396 0 6 tcp 1040 ------- 0 0.0 3.0 16 41
r 1.800468 5 4 ack 40 ------- 0 5.0 2.0 4 45
h 1.800468 4 6 ack 40 ------- 0 5.0 2.0 4 45
+ 1.800481 0 6 tcp 1040 ------- 0 0.0 3.0 19 46
+ 1.800481 0 6 tcp 1040 ------- 0 0.0 3.0 20 47
- 1.800481 0 6 tcp 1040 ------- 0 0.0 3.0 17 43
r 1.800554 5 4 ack 40 ------- 0 5.0 2.0 5 48
h 1.800554 4 6 ack 40 ------- 0 5.0 2.0 5 48
+ 1.800566 0 6 tcp 1040 ------- 0 0.0 3.0 21 49
+ 1.800566 0 6 tcp 1040 ------- 0 0.0 3.0 22 50
- 1.800566 0 6 tcp 1040 ------- 0 0.0 3.0 18 44
r 1.800639 5 4 ack 40 ------- 0 5.0 2.0 6 51
h 1.800639 4 6 ack 40 ------- 0 5.0 2.0 6 51
+ 1.800652 0 6 tcp 1040 ------- 0 0.0 3.0 23 52
+ 1.800652 0 6 tcp 1040 ------- 0 0.0 3.0 24 53
- 1.800652 0 6 tcp 1040 ------- 0 0.0 3.0 19 46
+ 1.800737 0 6 tcp 1040 ------- 0 0.0 3.0 25 54
+ 1.800737 0 6 tcp 1040 ------- 0 0.0 3.0 26 55
- 1.800737 0 6 tcp 1040 ------- 0 0.0 3.0 20 47
+ 1.800822 0 6 tcp 1040 ------- 0 0.0 3.0 27 56
+ 1.800822 0 6 tcp 1040 ------- 0 0.0 3.0 28 57
- 1.800822 0 6 tcp 1040 ------- 0 0.0 3.0 21 49
+ 1.800908 0 6 tcp 1040 ------- 0 0.0 3.0 29 58
+ 1.800908 0 6 tcp 1040 ------- 0 0.0 3.0 30 59
- 1.800908 0 6 tcp 1040 ------- 0 0.0 3.0 22 50
- 1.800993 0 6 tcp 1040 ------- 0 0.0 3.0 23 52
- 1.801078 0 6 tcp 1040 ------- 0 0.0 3.0 24 53
- 1.801163 0 6 tcp 1040 ------- 0 0.0 3.0 25 54
- 1.801249 0 6 tcp 1040 ------- 0 0.0 3.0 26 55
- 1.801334 0 6 tcp 1040 ------- 0 0.0 3.0 27 56
- 1.801419 0 6 tcp 1040 ------- 0 0.0 3.0 28 57
- 1.801504 0 6 tcp 1040 ------- 0 0.0 3.0 29 58
- 1.80159 0 6 tcp 1040 ------- 0 0.0 3.0 30 59
+ 1.900383 4 6 ack 40 ------- 0 5.0 2.0 3 42
- 1.900383 4 6 ack 40 ------- 0 5.0 2.0 3 42
r 1.900399 6 3 tcp 1040 ------- 0 0.0 3.0 15 40
h 1.900399 3 6 ack 40 ------- 0 3.0 0.0 15 60
+ 1.900468 4 6 ack 40 ------- 0 5.0 2.0 4 45
- 1.900468 4 6 ack 40 ------- 0 5.0 2.0 4 45
r 1.900484 6 3 tcp 1040 ------- 0 0.0 3.0 16 41
h 1.900484 3 6 ack 40 ------- 0 3.0 0.0 16 61
+ 1.900554 4 6 ack 40 ------- 0 5.0 2.0 5 48
- 1.900554 4 6 ack 40 ------- 0 5.0 2.0 5 48
r 1.900569 6 3 tcp 1040 ------- 0 0.0 3.0 17 43
h 1.900569 3 6 ack 40 ------- 0 3.0 0.0 17 62
+ 1.900639 4 6 ack 40 ------- 0 5.0 2.0 6 51
- 1.900639 4 6 ack 40 ------- 0 5.0 2.0 6 51
r 1.900655 6 3 tcp 1040 ------- 0 0.0 3.0 18 44
h 1.900655 3 6 ack 40 ------- 0 3.0 0.0 18 63
r 1.90074 6 3 tcp 1040 ------- 0 0.0 3.0 19 46
h 1.90074 3 6 ack 40 ------- 0 3.0 0.0 19 64
r 1.900825 6 3 tcp 1040 ------- 0 0.0 3.0 20 47
h 1.900825 3 6 ack 40 ------- 0 3.0 0.0 20 65
r 1.900911 6 3 tcp 1040 ------- 0 0.0 3.0 21 49
h 1.900911 3 6 ack 40 ------- 0 3.0 0.0 21 66
r 1.900996 6 3 tcp 1040 ------- 0 0.0 3.0 22 50
h 1.900996 3 6 ack 40 ------- 0 3.0 0.0 22 67
r 1.901081 6 3 tcp 1040 ------- 0 0.0 3.0 23 52
h 1.901081 3 6 ack 40 ------- 0 3.0 0.0 23 68
r 1.901166 6 3 tcp 1040 ------- 0 0.0 3.0 24 53
h 1.901166 3 6 ack 40 ------- 0 3.0 0.0 24 69
r 1.901252 6 3 tcp 1040 ------- 0 0.0 3.0 25 54
h 1.901252 3 6 ack 40 ------- 0 3.0 0.0 25 70
r 1.901337 6 3 tcp 1040 ------- 0 0.0 3.0 26 55
h 1.901337 3 6 ack 40 ------- 0 3.0 0.0 26 71
r 1.901422 6 3 tcp 1040 ------- 0 0.0 3.0 27 56
h 1.901422 3 6 ack 40 ------- 0 3.0 0.0 27 72
r 1.901508 6 3 tcp 1040 ------- 0 0.0 3.0 28 57
h 1.901508 3 6 ack 40 ------- 0 3.0 0.0 28 73
r 1.901593 6 3 tcp 1040 ------- 0 0.0 3.0 29 58
h 1.901593 3 6 ack 40 ------- 0 3.0 0.0 29 74
r 1.901678 6 3 tcp 1040 ------- 0 0.0 3.0 30 59
h 1.901678 3 6 ack 40 ------- 0 3.0 0.0 30 75
r 2.000392 6 2 ack 40 ------- 0 5.0 2.0 3 42
h 2.000392 2 6 tcp 1040 ------- 0 2.0 5.0 7 76
h 2.000392 2 6 tcp 1040 ------- 0 2.0 5.0 8 77
+ 2.000399 3 6 ack 40 ------- 0 3.0 0.0 15 60
- 2.000399 3 6 ack 40 ------- 0 3.0 0.0 15 60
r 2.000478 6 2 ack 40 ------- 0 5.0 2.0 4 45
h 2.000478 2 6 tcp 1040 ------- 0 2.0 5.0 9 78
h 2.000478 2 6 tcp 1040 ------- 0 2.0 5.0 10 79
+ 2.000484 3 6 ack 40 ------- 0 3.0 0.0 16 61
- 2.000484 3 6 ack 40 ------- 0 3.0 0.0 16 61
r 2.000563 6 2 ack 40 ------- 0 5.0 2.0 5 48
h 2.000563 2 6 tcp 1040 ------- 0 2.0 5.0 11 80
h 2.000563 2 6 tcp 1040 ------- 0 2.0 5.0 12 81
+ 2.000569 3 6 ack 40 ------- 0 3.0 0.0 17 62
- 2.000569 3 6 ack 40 ------- 0 3.0 0.0 17 62
r 2.000648 6 2 ack 40 ------- 0 5.0 2.0 6 51
h 2.000648 2 6 tcp 1040 ------- 0 2.0 5.0 13 82
h 2.000648 2 6 tcp 1040 ------- 0 2.0 5.0 14 83
+ 2.000655 3 6 ack 40 ------- 0 3.0 0.0 18 63
- 2.000655 3 6 ack 40 ------- 0 3.0 0.0 18 63
+ 2.00074 3 6 ack 40 ------- 0 3.0 0.0 19 64
- 2.00074 3 6 ack 40 ------- 0 3.0 0.0 19 64
+ 2.000825 3 6 ack 40 ------- 0 3.0 0.0 20 65
- 2.000825 3 6 ack 40 ------- 0 3.0 0.0 20 65
+ 2.000911 3 6 ack 40 ------- 0 3.0 0.0 21 66
- 2.000911 3 6 ack 40 ------- 0 3.0 0.0 21 66
+ 2.000996 3 6 ack 40 ------- 0 3.0 0.0 22 67
- 2.000996 3 6 ack 40 ------- 0 3.0 0.0 22 67
+ 2.001081 3 6 ack 40 ------- 0 3.0 0.0 23 68
- 2.001081 3 6 ack 40 ------- 0 3.0 0.0 23 68
+ 2.001166 3 6 ack 40 ------- 0 3.0 0.0 24 69
- 2.001166 3 6 ack 40 ------- 0 3.0 0.0 24 69
+ 2.001252 3 6 ack 40 ------- 0 3.0 0.0 25 70
- 2.001252 3 6 ack 40 ------- 0 3.0 0.0 25 70
+ 2.001337 3 6 ack 40 ------- 0 3.0 0.0 26 71
- 2.001337 3 6 ack 40 ------- 0 3.0 0.0 26 71
+ 2.001422 3 6 ack 40 ------- 0 3.0 0.0 27 72
- 2.001422 3 6 ack 40 ------- 0 3.0 0.0 27 72
+ 2.001508 3 6 ack 40 ------- 0 3.0 0.0 28 73
- 2.001508 3 6 ack 40 ------- 0 3.0 0.0 28 73
+ 2.001593 3 6 ack 40 ------- 0 3.0 0.0 29 74
- 2.001593 3 6 ack 40 ------- 0 3.0 0.0 29 74
+ 2.001678 3 6 ack 40 ------- 0 3.0 0.0 30 75
- 2.001678 3 6 ack 40 ------- 0 3.0 0.0 30 75
+ 2.100392 2 6 tcp 1040 ------- 0 2.0 5.0 7 76
- 2.100392 2 6 tcp 1040 ------- 0 2.0 5.0 7 76
+ 2.100392 2 6 tcp 1040 ------- 0 2.0 5.0 8 77
r 2.100408 6 0 ack 40 ------- 0 3.0 0.0 15 60
h 2.100408 0 6 tcp 1040 ------- 0 0.0 3.0 31 84
h 2.100408 0 6 tcp 1040 ------- 0 0.0 3.0 32 85
+ 2.100478 2 6 tcp 1040 ------- 0 2.0 5.0 9 78
+ 2.100478 2 6 tcp 1040 ------- 0 2.0 5.0 10 79
- 2.100478 2 6 tcp 1040 ------- 0 2.0 5.0 8 77
r 2.100493 6 0 ack 40 ------- 0 3.0 0.0 16 61
h 2.100493 0 6 tcp 1040 ------- 0 0.0 3.0 33 86
h 2.100493 0 6 tcp 1040 ------- 0 0.0 3.0 34 87
+ 2.100563 2 6 tcp 1040 ------- 0 2.0 5.0 11 80
+ 2.100563 2 6 tcp 1040 ------- 0 2.0 5.0 12 81
- 2.100563 2 6 tcp 1040 ------- 0 2.0 5.0 9 78
r 2.100579 6 0 ack 40 ------- 0 3.0 0.0 17 62
h 2.100579 0 6 tcp 1040 ------- 0 0.0 3.0 35 88
h 2.100579 0 6 tcp 1040 ------- 0 0.0 3.0 36 89
+ 2.100648 2 6 tcp 1040 ------- 0 2.0 5.0 13 82
+ 2.100648 2 6 tcp 1040 ------- 0 2.0 5.0 14 83
- 2.100648 2 6 tcp 1040 ------- 0 2.0 5.0 10 79
r 2.100664 6 0 ack 40 ------- 0 3.0 0.0 18 63
h 2.100664 0 6 tcp 1040 ------- 0 0.0 3.0 37 90
h 2.100664 0 6 tcp 1040 ------- 0 0.0 3.0 38 91
- 2.100733 2 6 tcp 1040 ------- 0 2.0 5.0 11 80
r 2.100749 6 0 ack 40 ------- 0 3.0 0.0 19 64
h 2.100749 0 6 tcp 1040 ------- 0 0.0 3.0 39 92
- 2.100819 2 6 tcp 1040 ------- 0 2.0 5.0 12 81
r 2.100834 6 0 ack 40 ------- 0 3.0 0.0 20 65
h 2.100834 0 6 tcp 1040 ------- 0 0.0 3.0 40 93
- 2.100904 2 6 tcp 1040 ------- 0 2.0 5.0 13 82
r 2.10092 6 0 ack 40 ------- 0 3.0 0.0 21 66
h 2.10092 0 6 tcp 1040 ------- 0 0.0 3.0 41 94
- 2.100989 2 6 tcp 1040 ------- 0 2.0 5.0 14 83
r 2.101005 6 0 ack 40 ------- 0 3.0 0.0 22 67
h 2.101005 0 6 tcp 1040 ------- 0 0.0 3.0 42 95
r 2.10109 6 0 ack 40 ------- 0 3.0 0.0 23 68
h 2.10109 0 6 tcp 1040 ------- 0 0.0 3.0 43 96
r 2.101176 6 0 ack 40 ------- 0 3.0 0.0 24 69
h 2.101176 0 6 tcp 1040 ------- 0 0.0 3.0 44 97
r 2.101261 6 0 ack 40 ------- 0 3.0 0.0 25 70
h 2.101261 0 6 tcp 1040 ------- 0 0.0 3.0 45 98
r 2.101346 6 0 ack 40 ------- 0 3.0 0.0 26 71
h 2.101346 0 6 tcp 1040 ------- 0 0.0 3.0 46 99
r 2.101431 6 0 ack 40 ------- 0 3.0 0.0 27 72
h 2.101431 0 6 tcp 1040 ------- 0 0.0 3.0 47 100
r 2.101517 6 0 ack 40 ------- 0 3.0 0.0 28 73
h 2.101517 0 6 tcp 1040 ------- 0 0.0 3.0 48 101
r 2.101602 6 0 ack 40 ------- 0 3.0 0.0 29 74
h 2.101602 0 6 tcp 1040 ------- 0 0.0 3.0 49 102
r 2.101687 6 0 ack 40 ------- 0 3.0 0.0 30 75
h 2.101687 0 6 tcp 1040 ------- 0 0.0 3.0 50 103
+ 2.200408 0 6 tcp 1040 ------- 0 0.0 3.0 31 84
- 2.200408 0 6 tcp 1040 ------- 0 0.0 3.0 31 84
+ 2.200408 0 6 tcp 1040 ------- 0 0.0 3.0 32 85
r 2.200481 6 4 tcp 1040 ------- 0 2.0 5.0 7 76
+ 2.200481 4 5 tcp 1040 ------- 0 2.0 5.0 7 76
- 2.200481 4 5 tcp 1040 ------- 0 2.0 5.0 7 76
+ 2.200493 0 6 tcp 1040 ------- 0 0.0 3.0 33 86
+ 2.200493 0 6 tcp 1040 ------- 0 0.0 3.0 34 87
- 2.200493 0 6 tcp 1040 ------- 0 0.0 3.0 32 85
r 2.200566 6 4 tcp 1040 ------- 0 2.0 5.0 8 77
+ 2.200566 4 5 tcp 1040 ------- 0 2.0 5.0 8 77
- 2.200566 4 5 tcp 1040 ------- 0 2.0 5.0 8 77
+ 2.200579 0 6 tcp 1040 ------- 0 0.0 3.0 35 88
+ 2.200579 0 6 tcp 1040 ------- 0 0.0 3.0 36 89
- 2.200579 0 6 tcp 1040 ------- 0 0.0 3.0 33 86
r 2.200651 6 4 tcp 1040 ------- 0 2.0 5.0 9 78
+ 2.200651 4 5 tcp 1040 ------- 0 2.0 5.0 9 78
- 2.200651 4 5 tcp 1040 ------- 0 2.0 5.0 9 78
+ 2.200664 0 6 tcp 1040 ------- 0 0.0 3.0 37 90
+ 2.200664 0 6 tcp 1040 ------- 0 0.0 3.0 38 91
- 2.200664 0 6 tcp 1040 ------- 0 0.0 3.0 34 87
r 2.200736 6 4 tcp 1040 ------- 0 2.0 5.0 10 79
+ 2.200736 4 5 tcp 1040 ------- 0 2.0 5.0 10 79
- 2.200736 4 5 tcp 1040 ------- 0 2.0 5.0 10 79
+ 2.200749 0 6 tcp 1040 ------- 0 0.0 3.0 39 92
- 2.200749 0 6 tcp 1040 ------- 0 0.0 3.0 35 88
r 2.200822 6 4 tcp 1040 ------- 0 2.0 5.0 11 80
+ 2.200822 4 5 tcp 1040 ------- 0 2.0 5.0 11 80
- 2.200822 4 5 tcp 1040 ------- 0 2.0 5.0 11 80
+ 2.200834 0 6 tcp 1040 ------- 0 0.0 3.0 40 93
- 2.200834 0 6 tcp 1040 ------- 0 0.0 3.0 36 89
r 2.200907 6 4 tcp 1040 ------- 0 2.0 5.0 12 81
+ 2.200907 4 5 tcp 1040 ------- 0 2.0 5.0 12 81
- 2.200907 4 5 tcp 1040 ------- 0 2.0 5.0 12 81
+ 2.20092 0 6 tcp 1040 ------- 0 0.0 3.0 41 94
- 2.20092 0 6 tcp 1040 ------- 0 0.0 3.0 37 90
r 2.200992 6 4 tcp 1040 ------- 0 2.0 5.0 13 82
+ 2.200992 4 5 tcp 1040 ------- 0 2.0 5.0 13 82
- 2.200992 4 5 tcp 1040 ------- 0 2.0 5.0 13 82
+ 2.201005 0 6 tcp 1040 ------- 0 0.0 3.0 42 95
- 2.201005 0 6 tcp 1040 ------- 0 0.0 3.0 38 91
r 2.201078 6 4 tcp 1040 ------- 0 2.0 5.0 14 83
+ 2.201078 4 5 tcp 1040 ------- 0 2.0 5.0 14 83
- 2.201078 4 5 tcp 1040 ------- 0 2.0 5.0 14 83
+ 2.20109 0 6 tcp 1040 ------- 0 0.0 3.0 43 96
- 2.20109 0 6 tcp 1040 ------- 0 0.0 3.0 39 92
+ 2.201176 0 6 tcp 1040 ------- 0 0.0 3.0 44 97
- 2.201176 0 6 tcp 1040 ------- 0 0.0 3.0 40 93
+ 2.201261 0 6 tcp 1040 ------- 0 0.0 3.0 45 98
- 2.201261 0 6 tcp 1040 ------- 0 0.0 3.0 41 94
+ 2.201346 0 6 tcp 1040 ------- 0 0.0 3.0 46 99
- 2.201346 0 6 tcp 1040 ------- 0 0.0 3.0 42 95
+ 2.201431 0 6 tcp 1040 ------- 0 0.0 3.0 47 100
- 2.201431 0 6 tcp 1040 ------- 0 0.0 3.0 43 96
+ 2.201517 0 6 tcp 1040 ------- 0 0.0 3.0 48 101
- 2.201517 0 6 tcp 1040 ------- 0 0.0 3.0 44 97
+ 2.201602 0 6 tcp 1040 ------- 0 0.0 3.0 49 102
- 2.201602 0 6 tcp 1040 ------- 0 0.0 3.0 45 98
+ 2.201687 0 6 tcp 1040 ------- 0 0.0 3.0 50 103
- 2.201687 0 6 tcp 1040 ------- 0 0.0 3.0 46 99
- 2.201772 0 6 tcp 1040 ------- 0 0.0 3.0 47 100
- 2.201858 0 6 tcp 1040 ------- 0 0.0 3.0 48 101
- 2.201943 0 6 tcp 1040 ------- 0 0.0 3.0 49 102
- 2.202028 0 6 tcp 1040 ------- 0 0.0 3.0 50 103
r 2.300496 6 3 tcp 1040 ------- 0 0.0 3.0 31 84
h 2.300496 3 6 ack 40 ------- 0 3.0 0.0 31 104
r 2.300564 4 5 tcp 1040 ------- 0 2.0 5.0 7 76
+ 2.300564 5 4 ack 40 ------- 0 5.0 2.0 7 105
- 2.300564 5 4 ack 40 ------- 0 5.0 2.0 7 105
r 2.300582 6 3 tcp 1040 ------- 0 0.0 3.0 32 85
h 2.300582 3 6 ack 40 ------- 0 3.0 0.0 32 106
r 2.300649 4 5 tcp 1040 ------- 0 2.0 5.0 8 77
+ 2.300649 5 4 ack 40 ------- 0 5.0 2.0 8 107
- 2.300649 5 4 ack 40 ------- 0 5.0 2.0 8 107
r 2.300667 6 3 tcp 1040 ------- 0 0.0 3.0 33 86
h 2.300667 3 6 ack 40 ------- 0 3.0 0.0 33 108
r 2.300734 4 5 tcp 1040 ------- 0 2.0 5.0 9 78
+ 2.300734 5 4 ack 40 ------- 0 5.0 2.0 9 109
- 2.300734 5 4 ack 40 ------- 0 5.0 2.0 9 109
r 2.300752 6 3 tcp 1040 ------- 0 0.0 3.0 34 87
h 2.300752 3 6 ack 40 ------- 0 3.0 0.0 34 110
r 2.30082 4 5 tcp 1040 ------- 0 2.0 5.0 10 79
+ 2.30082 5 4 ack 40 ------- 0 5.0 2.0 10 111
- 2.30082 5 4 ack 40 ------- 0 5.0 2.0 10 111
r 2.300837 6 3 tcp 1040 ------- 0 0.0 3.0 35 88
h 2.300837 3 6 ack 40 ------- 0 3.0 0.0 35 112
r 2.300905 4 5 tcp 1040 ------- 0 2.0 5.0 11 80
+ 2.300905 5 4 ack 40 ------- 0 5.0 2.0 11 113
- 2.300905 5 4 ack 40 ------- 0 5.0 2.0 11 113
r 2.300923 6 3 tcp 1040 ------- 0 0.0 3.0 36 89
h 2.300923 3 6 ack 40 ------- 0 3.0 0.0 36 114
r 2.30099 4 5 tcp 1040 ------- 0 2.0 5.0 12 81
+ 2.30099 5 4 ack 40 ------- 0 5.0 2.0 12 115
- 2.30099 5 4 ack 40 ------- 0 5.0 2.0 12 115
r 2.301008 6 3 tcp 1040 ------- 0 0.0 3.0 37 90
h 2.301008 3 6 ack 40 ------- 0 3.0 0.0 37 116
r 2.301076 4 5 tcp 1040 ------- 0 2.0 5.0 13 82
+ 2.301076 5 4 ack 40 ------- 0 5.0 2.0 13 117
- 2.301076 5 4 ack 40 ------- 0 5.0 2.0 13 117
r 2.301093 6 3 tcp 1040 ------- 0 0.0 3.0 38 91
h 2.301093 3 6 ack 40 ------- 0 3.0 0.0 38 118
r 2.301161 4 5 tcp 1040 ------- 0 2.0 5.0 14 83
+ 2.301161 5 4 ack 40 ------- 0 5.0 2.0 14 119
- 2.301161 5 4 ack 40 ------- 0 5.0 2.0 14 119
r 2.301179 6 3 tcp 1040 ------- 0 0.0 3.0 39 92
h 2.301179 3 6 ack 40 ------- 0 3.0 0.0 39 120
r 2.301264 6 3 tcp 1040 ------- 0 0.0 3.0 40 93
h 2.301264 3 6 ack 40 ------- 0 3.0 0.0 40 121
r 2.301349 6 3 tcp 1040 ------- 0 0.0 3.0 41 94
h 2.301349 3 6 ack 40 ------- 0 3.0 0.0 41 122
r 2.301434 6 3 tcp 1040 ------- 0 0.0 3.0 42 95
h 2.301434 3 6 ack 40 ------- 0 3.0 0.0 42 123
r 2.30152 6 3 tcp 1040 ------- 0 0.0 3.0 43 96
h 2.30152 3 6 ack 40 ------- 0 3.0 0.0 43 124
r 2.301605 6 3 tcp 1040 ------- 0 0.0 3.0 44 97
h 2.301605 3 6 ack 40 ------- 0 3.0 0.0 44 125
r 2.30169 6 3 tcp 1040 ------- 0 0.0 3.0 45 98
h 2.30169 3 6 ack 40 ------- 0 3.0 0.0 45 126
r 2.301776 6 3 tcp 1040 ------- 0 0.0 3.0 46 99
h 2.301776 3 6 ack 40 ------- 0 3.0 0.0 46 127
r 2.301861 6 3 tcp 1040 ------- 0 0.0 3.0 47 100
h 2.301861 3 6 ack 40 ------- 0 3.0 0.0 47 128
r 2.301946 6 3 tcp 1040 ------- 0 0.0 3.0 48 101
h 2.301946 3 6 ack 40 ------- 0 3.0 0.0 48 129
r 2.302031 6 3 tcp 1040 ------- 0 0.0 3.0 49 102
h 2.302031 3 6 ack 40 ------- 0 3.0 0.0 49 130
r 2.302117 6 3 tcp 1040 ------- 0 0.0 3.0 50 103
h 2.302117 3 6 ack 40 ------- 0 3.0 0.0 50 131
+ 2.400496 3 6 ack 40 ------- 0 3.0 0.0 31 104
- 2.400496 3 6 ack 40 ------- 0 3.0 0.0 31 104
r 2.400567 5 4 ack 40 ------- 0 5.0 2.0 7 105
h 2.400567 4 6 ack 40 ------- 0 5.0 2.0 7 105
+ 2.400582 3 6 ack 40 ------- 0 3.0 0.0 32 106
- 2.400582 3 6 ack 40 ------- 0 3.0 0.0 32 106
r 2.400652 5 4 ack 40 ------- 0 5.0 2.0 8 107
h 2.400652 4 6 ack 40 ------- 0 5.0 2.0 8 107
+ 2.400667 3 6 ack 40 ------- 0 3.0 0.0 33 108
- 2.400667 3 6 ack 40 ------- 0 3.0 0.0 33 108
r 2.400738 5 4 ack 40 ------- 0 5.0 2.0 9 109
h 2.400738 4 6 ack 40 ------- 0 5.0 2.0 9 109
+ 2.400752 3 6 ack 40 ------- 0 3.0 0.0 34 110
- 2.400752 3 6 ack 40 ------- 0 3.0 0.0 34 110
r 2.400823 5 4 ack 40 ------- 0 5.0 2.0 10 111
h 2.400823 4 6 ack 40 ------- 0 5.0 2.0 10 111
+ 2.400837 3 6 ack 40 ------- 0 3.0 0.0 35 112
- 2.400837 3 6 ack 40 ------- 0 3.0 0.0 35 112
r 2.400908 5 4 ack 40 ------- 0 5.0 2.0 11 113
h 2.400908 4 6 ack 40 ------- 0 5.0 2.0 11 113
+ 2.400923 3 6 ack 40 ------- 0 3.0 0.0 36 114
- 2.400923 3 6 ack 40 ------- 0 3.0 0.0 36 114
r 2.400993 5 4 ack 40 ------- 0 5.0 2.0 12 115
h 2.400993 4 6 ack 40 ------- 0 5.0 2.0 12 115
+ 2.401008 3 6 ack 40 ------- 0 3.0 0.0 37 116
- 2.401008 3 6 ack 40 ------- 0 3.0 0.0 37 116
r 2.401079 5 4 ack 40 ------- 0 5.0 2.0 13 117
h 2.401079 4 6 ack 40 ------- 0 5.0 2.0 13 117
+ 2.401093 3 6 ack 40 ------- 0 3.0 0.0 38 118
- 2.401093 3 6 ack 40 ------- 0 3.0 0.0 38 118
r 2.401164 5 4 ack 40 ------- 0 5.0 2.0 14 119
h 2.401164 4 6 ack 40 ------- 0 5.0 2.0 14 119
+ 2.401179 3 6 ack 40 ------- 0 3.0 0.0 39 120
- 2.401179 3 6 ack 40 ------- 0 3.0 0.0 39 120
+ 2.401264 3 6 ack 40 ------- 0 3.0 0.0 40 121
- 2.401264 3 6 ack 40 ------- 0 3.0 0.0 40 121
+ 2.401349 3 6 ack 40 ------- 0 3.0 0.0 41 122
- 2.401349 3 6 ack 40 ------- 0 3.0 0.0 41 122
+ 2.401434 3 6 ack 40 ------- 0 3.0 0.0 42 123
- 2.401434 3 6 ack 40 ------- 0 3.0 0.0 42 123
+ 2.40152 3 6 ack 40 ------- 0 3.0 0.0 43 124
- 2.40152 3 6 ack 40 ------- 0 3.0 0.0 43 124
+ 2.401605 3 6 ack 40 ------- 0 3.0 0.0 44 125
- 2.401605 3 6 ack 40 ------- 0 3.0 0.0 44 125
+ 2.40169 3 6 ack 40 ------- 0 3.0 0.0 45 126
- 2.40169 3 6 ack 40 ------- 0 3.0 0.0 45 126
+ 2.401776 3 6 ack 40 ------- 0 3.0 0.0 46 127
- 2.401776 3 6 ack 40 ------- 0 3.0 0.0 46 127
+ 2.401861 3 6 ack 40 ------- 0 3.0 0.0 47 128
- 2.401861 3 6 ack 40 ------- 0 3.0 0.0 47 128
+ 2.401946 3 6 ack 40 ------- 0 3.0 0.0 48 129
- 2.401946 3 6 ack 40 ------- 0 3.0 0.0 48 129
+ 2.402031 3 6 ack 40 ------- 0 3.0 0.0 49 130
- 2.402031 3 6 ack 40 ------- 0 3.0 0.0 49 130
+ 2.402117 3 6 ack 40 ------- 0 3.0 0.0 50 131
- 2.402117 3 6 ack 40 ------- 0 3.0 0.0 50 131
r 2.500505 6 0 ack 40 ------- 0 3.0 0.0 31 104
h 2.500505 0 6 tcp 1040 ------- 0 0.0 3.0 51 132
+ 2.500567 4 6 ack 40 ------- 0 5.0 2.0 7 105
- 2.500567 4 6 ack 40 ------- 0 5.0 2.0 7 105
r 2.500591 6 0 ack 40 ------- 0 3.0 0.0 32 106
h 2.500591 0 6 tcp 1040 ------- 0 0.0 3.0 52 133
+ 2.500652 4 6 ack 40 ------- 0 5.0 2.0 8 107
- 2.500652 4 6 ack 40 ------- 0 5.0 2.0 8 107
r 2.500676 6 0 ack 40 ------- 0 3.0 0.0 33 108
h 2.500676 0 6 tcp 1040 ------- 0 0.0 3.0 53 134
+ 2.500738 4 6 ack 40 ------- 0 5.0 2.0 9 109
- 2.500738 4 6 ack 40 ------- 0 5.0 2.0 9 109
r 2.500761 6 0 ack 40 ------- 0 3.0 0.0 34 110
h 2.500761 0 6 tcp 1040 ------- 0 0.0 3.0 54 135
+ 2.500823 4 6 ack 40 ------- 0 5.0 2.0 10 111
- 2.500823 4 6 ack 40 ------- 0 5.0 2.0 10 111
r 2.500847 6 0 ack 40 ------- 0 3.0 0.0 35 112
h 2.500847 0 6 tcp 1040 ------- 0 0.0 3.0 55 136
+ 2.500908 4 6 ack 40 ------- 0 5.0 2.0 11 113
- 2.500908 4 6 ack 40 ------- 0 5.0 2.0 11 113
r 2.500932 6 0 ack 40 ------- 0 3.0 0.0 36 114
h 2.500932 0 6 tcp 1040 ------- 0 0.0 3.0 56 137
+ 2.500993 4 6 ack 40 ------- 0 5.0 2.0 12 115
- 2.500993 4 6 ack 40 ------- 0 5.0 2.0 12 115
r 2.501017 6 0 ack 40 ------- 0 3.0 0.0 37 116
h 2.501017 0 6 tcp 1040 ------- 0 0.0 3.0 57 138
+ 2.501079 4 6 ack 40 ------- 0 5.0 2.0 13 117
- 2.501079 4 6 ack 40 ------- 0 5.0 2.0 13 117
r 2.501102 6 0 ack 40 ------- 0 3.0 0.0 38 118
h 2.501102 0 6 tcp 1040 ------- 0 0.0 3.0 58 139
+ 2.501164 4 6 ack 40 ------- 0 5.0 2.0 14 119
- 2.501164 4 6 ack 40 ------- 0 5.0 2.0 14 119
r 2.501188 6 0 ack 40 ------- 0 3.0 0.0 39 120
h 2.501188 0 6 tcp 1040 ------- 0 0.0 3.0 59 140
r 2.501273 6 0 ack 40 ------- 0 3.0 0.0 40 121
h 2.501273 0 6 tcp 1040 ------- 0 0.0 3.0 60 141
r 2.501358 6 0 ack 40 ------- 0 3.0 0.0 41 122
h 2.501358 0 6 tcp 1040 ------- 0 0.0 3.0 61 142
r 2.501444 6 0 ack 40 ------- 0 3.0 0.0 42 123
h 2.501444 0 6 tcp 1040 ------- 0 0.0 3.0 62 143
r 2.501529 6 0 ack 40 ------- 0 3.0 0.0 43 124
h 2.501529 0 6 tcp 1040 ------- 0 0.0 3.0 63 144
r 2.501614 6 0 ack 40 ------- 0 3.0 0.0 44 125
h 2.501614 0 6 tcp 1040 ------- 0 0.0 3.0 64 145
r 2.501699 6 0 ack 40 ------- 0 3.0 0.0 45 126
h 2.501699 0 6 tcp 1040 ------- 0 0.0 3.0 65 146
r 2.501785 6 0 ack 40 ------- 0 3.0 0.0 46 127
h 2.501785 0 6 tcp 1040 ------- 0 0.0 3.0 66 147
r 2.50187 6 0 ack 40 ------- 0 3.0 0.0 47 128
h 2.50187 0 6 tcp 1040 ------- 0 0.0 3.0 67 148
r 2.501955 6 0 ack 40 ------- 0 3.0 0.0 48 129
h 2.501955 0 6 tcp 1040 ------- 0 0.0 3.0 68 149
r 2.50204 6 0 ack 40 ------- 0 3.0 0.0 49 130
h 2.50204 0 6 tcp 1040 ------- 0 0.0 3.0 69 150
r 2.502126 6 0 ack 40 ------- 0 3.0 0.0 50 131
h 2.502126 0 6 tcp 1040 ------- 0 0.0 3.0 70 151
+ 2.600505 0 6 tcp 1040 ------- 0 0.0 3.0 51 132
- 2.600505 0 6 tcp 1040 ------- 0 0.0 3.0 51 132
r 2.600576 6 2 ack 40 ------- 0 5.0 2.0 7 105
h 2.600576 2 6 tcp 1040 ------- 0 2.0 5.0 15 152
h 2.600576 2 6 tcp 1040 ------- 0 2.0 5.0 16 153
+ 2.600591 0 6 tcp 1040 ------- 0 0.0 3.0 52 133
- 2.600591 0 6 tcp 1040 ------- 0 0.0 3.0 52 133
r 2.600661 6 2 ack 40 ------- 0 5.0 2.0 8 107
h 2.600661 2 6 tcp 1040 ------- 0 2.0 5.0 17 154
h 2.600661 2 6 tcp 1040 ------- 0 2.0 5.0 18 155
+ 2.600676 0 6 tcp 1040 ------- 0 0.0 3.0 53 134